+ 0.1 0 2 tcp 40 ------- 0 0.0 3.0 0 0
- 0.1 0 2 tcp 40 ------- 0 0.0 3.0 0 0
r 0.110032 0 2 tcp 40 ------- 0 0.0 3.0 0 0
+ 0.110032 2 3 tcp 40 ------- 0 0.0 3.0 0 0
- 0.110032 2 3 tcp 40 ------- 0 0.0 3.0 0 0
r 0.120112 2 3 tcp 40 ------- 0 0.0 3.0 0 0
+ 0.120112 3 2 ack 40 ------- 0 3.0 0.0 0 1
- 0.120112 3 2 ack 40 ------- 0 3.0 0.0 0 1
r 0.130192 3 2 ack 40 ------- 0 3.0 0.0 0 1
+ 0.130192 2 0 ack 40 ------- 0 3.0 0.0 0 1
- 0.130192 2 0 ack 40 ------- 0 3.0 0.0 0 1
r 0.140224 2 0 ack 40 ------- 0 3.0 0.0 0 1
+ 0.140224 0 2 tcp 1040 ------- 0 0.0 3.0 1 2
- 0.140224 0 2 tcp 1040 ------- 0 0.0 3.0 1 2
+ 0.140224 0 2 tcp 1040 ------- 0 0.0 3.0 2 3
- 0.141056 0 2 tcp 1040 ------- 0 0.0 3.0 2 3
r 0.151056 0 2 tcp 1040 ------- 0 0.0 3.0 1 2
+ 0.151056 2 3 tcp 1040 ------- 0 0.0 3.0 1 2
- 0.151056 2 3 tcp 1040 ------- 0 0.0 3.0 1 2
r 0.151888 0 2 tcp 1040 ------- 0 0.0 3.0 2 3
+ 0.151888 2 3 tcp 1040 ------- 0 0.0 3.0 2 3
- 0.153136 2 3 tcp 1040 ------- 0 0.0 3.0 2 3
r 0.163136 2 3 tcp 1040 ------- 0 0.0 3.0 1 2
+ 0.163136 3 2 ack 40 ------- 0 3.0 0.0 1 4
- 0.163136 3 2 ack 40 ------- 0 3.0 0.0 1 4
r 0.165216 2 3 tcp 1040 ------- 0 0.0 3.0 2 3
+ 0.165216 3 2 ack 40 ------- 0 3.0 0.0 2 5
- 0.165216 3 2 ack 40 ------- 0 3.0 0.0 2 5
r 0.173216 3 2 ack 40 ------- 0 3.0 0.0 1 4
+ 0.173216 2 0 ack 40 ------- 0 3.0 0.0 1 4
- 0.173216 2 0 ack 40 ------- 0 3.0 0.0 1 4
r 0.175296 3 2 ack 40 ------- 0 3.0 0.0 2 5
+ 0.175296 2 0 ack 40 ------- 0 3.0 0.0 2 5
- 0.175296 2 0 ack 40 ------- 0 3.0 0.0 2 5
r 0.183248 2 0 ack 40 ------- 0 3.0 0.0 1 4
+ 0.183248 0 2 tcp 1040 ------- 0 0.0 3.0 3 6
- 0.183248 0 2 tcp 1040 ------- 0 0.0 3.0 3 6
+ 0.183248 0 2 tcp 1040 ------- 0 0.0 3.0 4 7
- 0.18408 0 2 tcp 1040 ------- 0 0.0 3.0 4 7
r 0.185328 2 0 ack 40 ------- 0 3.0 0.0 2 5
+ 0.185328 0 2 tcp 1040 ------- 0 0.0 3.0 5 8
- 0.185328 0 2 tcp 1040 ------- 0 0.0 3.0 5 8
+ 0.185328 0 2 tcp 1040 ------- 0 0.0 3.0 6 9
- 0.18616 0 2 tcp 1040 ------- 0 0.0 3.0 6 9
r 0.19408 0 2 tcp 1040 ------- 0 0.0 3.0 3 6
+ 0.19408 2 3 tcp 1040 ------- 0 0.0 3.0 3 6
- 0.19408 2 3 tcp 1040 ------- 0 0.0 3.0 3 6
r 0.194912 0 2 tcp 1040 ------- 0 0.0 3.0 4 7
+ 0.194912 2 3 tcp 1040 ------- 0 0.0 3.0 4 7
r 0.19616 0 2 tcp 1040 ------- 0 0.0 3.0 5 8
+ 0.19616 2 3 tcp 1040 ------- 0 0.0 3.0 5 8
- 0.19616 2 3 tcp 1040 ------- 0 0.0 3.0 4 7
r 0.196992 0 2 tcp 1040 ------- 0 0.0 3.0 6 9
+ 0.196992 2 3 tcp 1040 ------- 0 0.0 3.0 6 9
- 0.19824 2 3 tcp 1040 ------- 0 0.0 3.0 5 8
+ 0.2 1 2 cbr 210 ------- 0 1.0 3.1 0 10
- 0.2 1 2 cbr 210 ------- 0 1.0 3.1 0 10
- 0.20032 2 3 tcp 1040 ------- 0 0.0 3.0 6 9
+ 0.20375 1 2 cbr 210 ------- 0 1.0 3.1 1 11
- 0.20375 1 2 cbr 210 ------- 0 1.0 3.1 1 11
r 0.20616 2 3 tcp 1040 ------- 0 0.0 3.0 3 6
+ 0.20616 3 2 ack 40 ------- 0 3.0 0.0 3 12
- 0.20616 3 2 ack 40 ------- 0 3.0 0.0 3 12
+ 0.2075 1 2 cbr 210 ------- 0 1.0 3.1 2 13
- 0.2075 1 2 cbr 210 ------- 0 1.0 3.1 2 13
r 0.20824 2 3 tcp 1040 ------- 0 0.0 3.0 4 7
+ 0.20824 3 2 ack 40 ------- 0 3.0 0.0 4 14
- 0.20824 3 2 ack 40 ------- 0 3.0 0.0 4 14
r 0.210168 1 2 cbr 210 ------- 0 1.0 3.1 0 10
+ 0.210168 2 3 cbr 210 ------- 0 1.0 3.1 0 10
- 0.210168 2 3 cbr 210 ------- 0 1.0 3.1 0 10
r 0.21032 2 3 tcp 1040 ------- 0 0.0 3.0 5 8
+ 0.21032 3 2 ack 40 ------- 0 3.0 0.0 5 15
- 0.21032 3 2 ack 40 ------- 0 3.0 0.0 5 15
+ 0.21125 1 2 cbr 210 ------- 0 1.0 3.1 3 16
- 0.21125 1 2 cbr 210 ------- 0 1.0 3.1 3 16
r 0.2124 2 3 tcp 1040 ------- 0 0.0 3.0 6 9
+ 0.2124 3 2 ack 40 ------- 0 3.0 0.0 6 17
- 0.2124 3 2 ack 40 ------- 0 3.0 0.0 6 17
r 0.213918 1 2 cbr 210 ------- 0 1.0 3.1 1 11
+ 0.213918 2 3 cbr 210 ------- 0 1.0 3.1 1 11
- 0.213918 2 3 cbr 210 ------- 0 1.0 3.1 1 11
+ 0.215 1 2 cbr 210 ------- 0 1.0 3.1 4 18
- 0.215 1 2 cbr 210 ------- 0 1.0 3.1 4 18
r 0.21624 3 2 ack 40 ------- 0 3.0 0.0 3 12
+ 0.21624 2 0 ack 40 ------- 0 3.0 0.0 3 12
- 0.21624 2 0 ack 40 ------- 0 3.0 0.0 3 12
r 0.217668 1 2 cbr 210 ------- 0 1.0 3.1 2 13
+ 0.217668 2 3 cbr 210 ------- 0 1.0 3.1 2 13
- 0.217668 2 3 cbr 210 ------- 0 1.0 3.1 2 13
r 0.21832 3 2 ack 40 ------- 0 3.0 0.0 4 14
+ 0.21832 2 0 ack 40 ------- 0 3.0 0.0 4 14
- 0.21832 2 0 ack 40 ------- 0 3.0 0.0 4 14
+ 0.21875 1 2 cbr 210 ------- 0 1.0 3.1 5 19
- 0.21875 1 2 cbr 210 ------- 0 1.0 3.1 5 19
r 0.2204 3 2 ack 40 ------- 0 3.0 0.0 5 15
+ 0.2204 2 0 ack 40 ------- 0 3.0 0.0 5 15
- 0.2204 2 0 ack 40 ------- 0 3.0 0.0 5 15
r 0.220588 2 3 cbr 210 ------- 0 1.0 3.1 0 10
r 0.221418 1 2 cbr 210 ------- 0 1.0 3.1 3 16
+ 0.221418 2 3 cbr 210 ------- 0 1.0 3.1 3 16
- 0.221418 2 3 cbr 210 ------- 0 1.0 3.1 3 16
r 0.22248 3 2 ack 40 ------- 0 3.0 0.0 6 17
+ 0.22248 2 0 ack 40 ------- 0 3.0 0.0 6 17
- 0.22248 2 0 ack 40 ------- 0 3.0 0.0 6 17
+ 0.2225 1 2 cbr 210 ------- 0 1.0 3.1 6 20
- 0.2225 1 2 cbr 210 ------- 0 1.0 3.1 6 20
r 0.224338 2 3 cbr 210 ------- 0 1.0 3.1 1 11
r 0.225168 1 2 cbr 210 ------- 0 1.0 3.1 4 18
+ 0.225168 2 3 cbr 210 ------- 0 1.0 3.1 4 18
- 0.225168 2 3 cbr 210 ------- 0 1.0 3.1 4 18
+ 0.22625 1 2 cbr 210 ------- 0 1.0 3.1 7 21
- 0.22625 1 2 cbr 210 ------- 0 1.0 3.1 7 21
r 0.226272 2 0 ack 40 ------- 0 3.0 0.0 3 12
+ 0.226272 0 2 tcp 1040 ------- 0 0.0 3.0 7 22
- 0.226272 0 2 tcp 1040 ------- 0 0.0 3.0 7 22
+ 0.226272 0 2 tcp 1040 ------- 0 0.0 3.0 8 23
- 0.227104 0 2 tcp 1040 ------- 0 0.0 3.0 8 23
r 0.228088 2 3 cbr 210 ------- 0 1.0 3.1 2 13
r 0.228352 2 0 ack 40 ------- 0 3.0 0.0 4 14
+ 0.228352 0 2 tcp 1040 ------- 0 0.0 3.0 9 24
- 0.228352 0 2 tcp 1040 ------- 0 0.0 3.0 9 24
+ 0.228352 0 2 tcp 1040 ------- 0 0.0 3.0 10 25
r 0.228918 1 2 cbr 210 ------- 0 1.0 3.1 5 19
+ 0.228918 2 3 cbr 210 ------- 0 1.0 3.1 5 19
- 0.228918 2 3 cbr 210 ------- 0 1.0 3.1 5 19
- 0.229184 0 2 tcp 1040 ------- 0 0.0 3.0 10 25
+ 0.23 1 2 cbr 210 ------- 0 1.0 3.1 8 26
- 0.23 1 2 cbr 210 ------- 0 1.0 3.1 8 26
r 0.230432 2 0 ack 40 ------- 0 3.0 0.0 5 15
+ 0.230432 0 2 tcp 1040 ------- 0 0.0 3.0 11 27
- 0.230432 0 2 tcp 1040 ------- 0 0.0 3.0 11 27
+ 0.230432 0 2 tcp 1040 ------- 0 0.0 3.0 12 28
- 0.231264 0 2 tcp 1040 ------- 0 0.0 3.0 12 28
r 0.231838 2 3 cbr 210 ------- 0 1.0 3.1 3 16
r 0.232512 2 0 ack 40 ------- 0 3.0 0.0 6 17
+ 0.232512 0 2 tcp 1040 ------- 0 0.0 3.0 13 29
- 0.232512 0 2 tcp 1040 ------- 0 0.0 3.0 13 29
+ 0.232512 0 2 tcp 1040 ------- 0 0.0 3.0 14 30
r 0.232668 1 2 cbr 210 ------- 0 1.0 3.1 6 20
+ 0.232668 2 3 cbr 210 ------- 0 1.0 3.1 6 20
- 0.232668 2 3 cbr 210 ------- 0 1.0 3.1 6 20
- 0.233344 0 2 tcp 1040 ------- 0 0.0 3.0 14 30
+ 0.23375 1 2 cbr 210 ------- 0 1.0 3.1 9 31
- 0.23375 1 2 cbr 210 ------- 0 1.0 3.1 9 31
r 0.235588 2 3 cbr 210 ------- 0 1.0 3.1 4 18
r 0.236418 1 2 cbr 210 ------- 0 1.0 3.1 7 21
+ 0.236418 2 3 cbr 210 ------- 0 1.0 3.1 7 21
- 0.236418 2 3 cbr 210 ------- 0 1.0 3.1 7 21
r 0.237104 0 2 tcp 1040 ------- 0 0.0 3.0 7 22
+ 0.237104 2 3 tcp 1040 ------- 0 0.0 3.0 7 22
- 0.237104 2 3 tcp 1040 ------- 0 0.0 3.0 7 22
+ 0.2375 1 2 cbr 210 ------- 0 1.0 3.1 10 32
- 0.2375 1 2 cbr 210 ------- 0 1.0 3.1 10 32
r 0.237936 0 2 tcp 1040 ------- 0 0.0 3.0 8 23
+ 0.237936 2 3 tcp 1040 ------- 0 0.0 3.0 8 23
r 0.239184 0 2 tcp 1040 ------- 0 0.0 3.0 9 24
+ 0.239184 2 3 tcp 1040 ------- 0 0.0 3.0 9 24
- 0.239184 2 3 tcp 1040 ------- 0 0.0 3.0 8 23
r 0.239338 2 3 cbr 210 ------- 0 1.0 3.1 5 19
r 0.240016 0 2 tcp 1040 ------- 0 0.0 3.0 10 25
+ 0.240016 2 3 tcp 1040 ------- 0 0.0 3.0 10 25
r 0.240168 1 2 cbr 210 ------- 0 1.0 3.1 8 26
+ 0.240168 2 3 cbr 210 ------- 0 1.0 3.1 8 26
+ 0.24125 1 2 cbr 210 ------- 0 1.0 3.1 11 33
- 0.24125 1 2 cbr 210 ------- 0 1.0 3.1 11 33
r 0.241264 0 2 tcp 1040 ------- 0 0.0 3.0 11 27
+ 0.241264 2 3 tcp 1040 ------- 0 0.0 3.0 11 27
- 0.241264 2 3 tcp 1040 ------- 0 0.0 3.0 9 24
r 0.242096 0 2 tcp 1040 ------- 0 0.0 3.0 12 28
+ 0.242096 2 3 tcp 1040 ------- 0 0.0 3.0 12 28
r 0.243088 2 3 cbr 210 ------- 0 1.0 3.1 6 20
r 0.243344 0 2 tcp 1040 ------- 0 0.0 3.0 13 29
+ 0.243344 2 3 tcp 1040 ------- 0 0.0 3.0 13 29
- 0.243344 2 3 tcp 1040 ------- 0 0.0 3.0 10 25
r 0.243918 1 2 cbr 210 ------- 0 1.0 3.1 9 31
+ 0.243918 2 3 cbr 210 ------- 0 1.0 3.1 9 31
r 0.244176 0 2 tcp 1040 ------- 0 0.0 3.0 14 30
+ 0.244176 2 3 tcp 1040 ------- 0 0.0 3.0 14 30
+ 0.245 1 2 cbr 210 ------- 0 1.0 3.1 12 34
- 0.245 1 2 cbr 210 ------- 0 1.0 3.1 12 34
- 0.245424 2 3 cbr 210 ------- 0 1.0 3.1 8 26
- 0.245844 2 3 tcp 1040 ------- 0 0.0 3.0 11 27
r 0.246838 2 3 cbr 210 ------- 0 1.0 3.1 7 21
r 0.247668 1 2 cbr 210 ------- 0 1.0 3.1 10 32
+ 0.247668 2 3 cbr 210 ------- 0 1.0 3.1 10 32
- 0.247924 2 3 tcp 1040 ------- 0 0.0 3.0 12 28
+ 0.24875 1 2 cbr 210 ------- 0 1.0 3.1 13 35
- 0.24875 1 2 cbr 210 ------- 0 1.0 3.1 13 35
r 0.249184 2 3 tcp 1040 ------- 0 0.0 3.0 7 22
+ 0.249184 3 2 ack 40 ------- 0 3.0 0.0 7 36
- 0.249184 3 2 ack 40 ------- 0 3.0 0.0 7 36
- 0.250004 2 3 tcp 1040 ------- 0 0.0 3.0 13 29
r 0.251264 2 3 tcp 1040 ------- 0 0.0 3.0 8 23
+ 0.251264 3 2 ack 40 ------- 0 3.0 0.0 8 37
- 0.251264 3 2 ack 40 ------- 0 3.0 0.0 8 37
r 0.251418 1 2 cbr 210 ------- 0 1.0 3.1 11 33
+ 0.251418 2 3 cbr 210 ------- 0 1.0 3.1 11 33
- 0.252084 2 3 cbr 210 ------- 0 1.0 3.1 9 31
+ 0.2525 1 2 cbr 210 ------- 0 1.0 3.1 14 38
- 0.2525 1 2 cbr 210 ------- 0 1.0 3.1 14 38
- 0.252504 2 3 tcp 1040 ------- 0 0.0 3.0 14 30
r 0.253344 2 3 tcp 1040 ------- 0 0.0 3.0 9 24
+ 0.253344 3 2 ack 40 ------- 0 3.0 0.0 9 39
- 0.253344 3 2 ack 40 ------- 0 3.0 0.0 9 39
- 0.254584 2 3 cbr 210 ------- 0 1.0 3.1 10 32
- 0.255004 2 3 cbr 210 ------- 0 1.0 3.1 11 33
r 0.255168 1 2 cbr 210 ------- 0 1.0 3.1 12 34
+ 0.255168 2 3 cbr 210 ------- 0 1.0 3.1 12 34
r 0.255424 2 3 tcp 1040 ------- 0 0.0 3.0 10 25
+ 0.255424 3 2 ack 40 ------- 0 3.0 0.0 10 40
- 0.255424 3 2 ack 40 ------- 0 3.0 0.0 10 40
- 0.255424 2 3 cbr 210 ------- 0 1.0 3.1 12 34
r 0.255844 2 3 cbr 210 ------- 0 1.0 3.1 8 26
+ 0.25625 1 2 cbr 210 ------- 0 1.0 3.1 15 41
- 0.25625 1 2 cbr 210 ------- 0 1.0 3.1 15 41
r 0.257924 2 3 tcp 1040 ------- 0 0.0 3.0 11 27
+ 0.257924 3 2 ack 40 ------- 0 3.0 0.0 11 42
- 0.257924 3 2 ack 40 ------- 0 3.0 0.0 11 42
r 0.258918 1 2 cbr 210 ------- 0 1.0 3.1 13 35
+ 0.258918 2 3 cbr 210 ------- 0 1.0 3.1 13 35
- 0.258918 2 3 cbr 210 ------- 0 1.0 3.1 13 35
r 0.259264 3 2 ack 40 ------- 0 3.0 0.0 7 36
+ 0.259264 2 0 ack 40 ------- 0 3.0 0.0 7 36
- 0.259264 2 0 ack 40 ------- 0 3.0 0.0 7 36
+ 0.26 1 2 cbr 210 ------- 0 1.0 3.1 16 43
- 0.26 1 2 cbr 210 ------- 0 1.0 3.1 16 43
r 0.260004 2 3 tcp 1040 ------- 0 0.0 3.0 12 28
+ 0.260004 3 2 ack 40 ------- 0 3.0 0.0 12 44
- 0.260004 3 2 ack 40 ------- 0 3.0 0.0 12 44
r 0.261344 3 2 ack 40 ------- 0 3.0 0.0 8 37
+ 0.261344 2 0 ack 40 ------- 0 3.0 0.0 8 37
- 0.261344 2 0 ack 40 ------- 0 3.0 0.0 8 37
r 0.262084 2 3 tcp 1040 ------- 0 0.0 3.0 13 29
+ 0.262084 3 2 ack 40 ------- 0 3.0 0.0 13 45
- 0.262084 3 2 ack 40 ------- 0 3.0 0.0 13 45
r 0.262504 2 3 cbr 210 ------- 0 1.0 3.1 9 31
r 0.262668 1 2 cbr 210 ------- 0 1.0 3.1 14 38
+ 0.262668 2 3 cbr 210 ------- 0 1.0 3.1 14 38
- 0.262668 2 3 cbr 210 ------- 0 1.0 3.1 14 38
r 0.263424 3 2 ack 40 ------- 0 3.0 0.0 9 39
+ 0.263424 2 0 ack 40 ------- 0 3.0 0.0 9 39
- 0.263424 2 0 ack 40 ------- 0 3.0 0.0 9 39
+ 0.26375 1 2 cbr 210 ------- 0 1.0 3.1 17 46
- 0.26375 1 2 cbr 210 ------- 0 1.0 3.1 17 46
r 0.264584 2 3 tcp 1040 ------- 0 0.0 3.0 14 30
+ 0.264584 3 2 ack 40 ------- 0 3.0 0.0 14 47
- 0.264584 3 2 ack 40 ------- 0 3.0 0.0 14 47
r 0.265004 2 3 cbr 210 ------- 0 1.0 3.1 10 32
r 0.265424 2 3 cbr 210 ------- 0 1.0 3.1 11 33
r 0.265504 3 2 ack 40 ------- 0 3.0 0.0 10 40
+ 0.265504 2 0 ack 40 ------- 0 3.0 0.0 10 40
- 0.265504 2 0 ack 40 ------- 0 3.0 0.0 10 40
r 0.265844 2 3 cbr 210 ------- 0 1.0 3.1 12 34
r 0.266418 1 2 cbr 210 ------- 0 1.0 3.1 15 41
+ 0.266418 2 3 cbr 210 ------- 0 1.0 3.1 15 41
- 0.266418 2 3 cbr 210 ------- 0 1.0 3.1 15 41
+ 0.2675 1 2 cbr 210 ------- 0 1.0 3.1 18 48
- 0.2675 1 2 cbr 210 ------- 0 1.0 3.1 18 48
r 0.268004 3 2 ack 40 ------- 0 3.0 0.0 11 42
+ 0.268004 2 0 ack 40 ------- 0 3.0 0.0 11 42
- 0.268004 2 0 ack 40 ------- 0 3.0 0.0 11 42
r 0.269296 2 0 ack 40 ------- 0 3.0 0.0 7 36
+ 0.269296 0 2 tcp 1040 ------- 0 0.0 3.0 15 49
- 0.269296 0 2 tcp 1040 ------- 0 0.0 3.0 15 49
+ 0.269296 0 2 tcp 1040 ------- 0 0.0 3.0 16 50
r 0.269338 2 3 cbr 210 ------- 0 1.0 3.1 13 35
r 0.270084 3 2 ack 40 ------- 0 3.0 0.0 12 44
+ 0.270084 2 0 ack 40 ------- 0 3.0 0.0 12 44
- 0.270084 2 0 ack 40 ------- 0 3.0 0.0 12 44
- 0.270128 0 2 tcp 1040 ------- 0 0.0 3.0 16 50
r 0.270168 1 2 cbr 210 ------- 0 1.0 3.1 16 43
+ 0.270168 2 3 cbr 210 ------- 0 1.0 3.1 16 43
- 0.270168 2 3 cbr 210 ------- 0 1.0 3.1 16 43
+ 0.27125 1 2 cbr 210 ------- 0 1.0 3.1 19 51
- 0.27125 1 2 cbr 210 ------- 0 1.0 3.1 19 51
r 0.271376 2 0 ack 40 ------- 0 3.0 0.0 8 37
+ 0.271376 0 2 tcp 1040 ------- 0 0.0 3.0 17 52
- 0.271376 0 2 tcp 1040 ------- 0 0.0 3.0 17 52
+ 0.271376 0 2 tcp 1040 ------- 0 0.0 3.0 18 53
r 0.272164 3 2 ack 40 ------- 0 3.0 0.0 13 45
+ 0.272164 2 0 ack 40 ------- 0 3.0 0.0 13 45
- 0.272164 2 0 ack 40 ------- 0 3.0 0.0 13 45
- 0.272208 0 2 tcp 1040 ------- 0 0.0 3.0 18 53
r 0.273088 2 3 cbr 210 ------- 0 1.0 3.1 14 38
r 0.273456 2 0 ack 40 ------- 0 3.0 0.0 9 39
+ 0.273456 0 2 tcp 1040 ------- 0 0.0 3.0 19 54
- 0.273456 0 2 tcp 1040 ------- 0 0.0 3.0 19 54
+ 0.273456 0 2 tcp 1040 ------- 0 0.0 3.0 20 55
r 0.273918 1 2 cbr 210 ------- 0 1.0 3.1 17 46
+ 0.273918 2 3 cbr 210 ------- 0 1.0 3.1 17 46
- 0.273918 2 3 cbr 210 ------- 0 1.0 3.1 17 46
- 0.274288 0 2 tcp 1040 ------- 0 0.0 3.0 20 55
r 0.274664 3 2 ack 40 ------- 0 3.0 0.0 14 47
+ 0.274664 2 0 ack 40 ------- 0 3.0 0.0 14 47
- 0.274664 2 0 ack 40 ------- 0 3.0 0.0 14 47
+ 0.275 1 2 cbr 210 ------- 0 1.0 3.1 20 56
- 0.275 1 2 cbr 210 ------- 0 1.0 3.1 20 56
r 0.275536 2 0 ack 40 ------- 0 3.0 0.0 10 40
+ 0.275536 0 2 tcp 1040 ------- 0 0.0 3.0 21 57
- 0.275536 0 2 tcp 1040 ------- 0 0.0 3.0 21 57
+ 0.275536 0 2 tcp 1040 ------- 0 0.0 3.0 22 58
- 0.276368 0 2 tcp 1040 ------- 0 0.0 3.0 22 58
r 0.276838 2 3 cbr 210 ------- 0 1.0 3.1 15 41
r 0.277668 1 2 cbr 210 ------- 0 1.0 3.1 18 48
+ 0.277668 2 3 cbr 210 ------- 0 1.0 3.1 18 48
- 0.277668 2 3 cbr 210 ------- 0 1.0 3.1 18 48
r 0.278036 2 0 ack 40 ------- 0 3.0 0.0 11 42
+ 0.278036 0 2 tcp 1040 ------- 0 0.0 3.0 23 59
- 0.278036 0 2 tcp 1040 ------- 0 0.0 3.0 23 59
+ 0.278036 0 2 tcp 1040 ------- 0 0.0 3.0 24 60
+ 0.27875 1 2 cbr 210 ------- 0 1.0 3.1 21 61
- 0.27875 1 2 cbr 210 ------- 0 1.0 3.1 21 61
- 0.278868 0 2 tcp 1040 ------- 0 0.0 3.0 24 60
r 0.280116 2 0 ack 40 ------- 0 3.0 0.0 12 44
+ 0.280116 0 2 tcp 1040 ------- 0 0.0 3.0 25 62
- 0.280116 0 2 tcp 1040 ------- 0 0.0 3.0 25 62
+ 0.280116 0 2 tcp 1040 ------- 0 0.0 3.0 26 63
r 0.280128 0 2 tcp 1040 ------- 0 0.0 3.0 15 49
+ 0.280128 2 3 tcp 1040 ------- 0 0.0 3.0 15 49
- 0.280128 2 3 tcp 1040 ------- 0 0.0 3.0 15 49
r 0.280588 2 3 cbr 210 ------- 0 1.0 3.1 16 43
- 0.280948 0 2 tcp 1040 ------- 0 0.0 3.0 26 63
r 0.28096 0 2 tcp 1040 ------- 0 0.0 3.0 16 50
+ 0.28096 2 3 tcp 1040 ------- 0 0.0 3.0 16 50
r 0.281418 1 2 cbr 210 ------- 0 1.0 3.1 19 51
+ 0.281418 2 3 cbr 210 ------- 0 1.0 3.1 19 51
r 0.282196 2 0 ack 40 ------- 0 3.0 0.0 13 45
+ 0.282196 0 2 tcp 1040 ------- 0 0.0 3.0 27 64
- 0.282196 0 2 tcp 1040 ------- 0 0.0 3.0 27 64
+ 0.282196 0 2 tcp 1040 ------- 0 0.0 3.0 28 65
r 0.282208 0 2 tcp 1040 ------- 0 0.0 3.0 17 52
+ 0.282208 2 3 tcp 1040 ------- 0 0.0 3.0 17 52
- 0.282208 2 3 tcp 1040 ------- 0 0.0 3.0 16 50
+ 0.2825 1 2 cbr 210 ------- 0 1.0 3.1 22 66
- 0.2825 1 2 cbr 210 ------- 0 1.0 3.1 22 66
- 0.283028 0 2 tcp 1040 ------- 0 0.0 3.0 28 65
r 0.28304 0 2 tcp 1040 ------- 0 0.0 3.0 18 53
+ 0.28304 2 3 tcp 1040 ------- 0 0.0 3.0 18 53
r 0.284288 0 2 tcp 1040 ------- 0 0.0 3.0 19 54
+ 0.284288 2 3 tcp 1040 ------- 0 0.0 3.0 19 54
- 0.284288 2 3 cbr 210 ------- 0 1.0 3.1 19 51
r 0.284338 2 3 cbr 210 ------- 0 1.0 3.1 17 46
r 0.284696 2 0 ack 40 ------- 0 3.0 0.0 14 47
+ 0.284696 0 2 tcp 1040 ------- 0 0.0 3.0 29 67
- 0.284696 0 2 tcp 1040 ------- 0 0.0 3.0 29 67
+ 0.284696 0 2 tcp 1040 ------- 0 0.0 3.0 30 68
- 0.284708 2 3 tcp 1040 ------- 0 0.0 3.0 17 52
r 0.28512 0 2 tcp 1040 ------- 0 0.0 3.0 20 55
+ 0.28512 2 3 tcp 1040 ------- 0 0.0 3.0 20 55
r 0.285168 1 2 cbr 210 ------- 0 1.0 3.1 20 56
+ 0.285168 2 3 cbr 210 ------- 0 1.0 3.1 20 56
- 0.285528 0 2 tcp 1040 ------- 0 0.0 3.0 30 68
+ 0.28625 1 2 cbr 210 ------- 0 1.0 3.1 23 69
- 0.28625 1 2 cbr 210 ------- 0 1.0 3.1 23 69
r 0.286368 0 2 tcp 1040 ------- 0 0.0 3.0 21 57
+ 0.286368 2 3 tcp 1040 ------- 0 0.0 3.0 21 57
- 0.286788 2 3 tcp 1040 ------- 0 0.0 3.0 18 53
r 0.2872 0 2 tcp 1040 ------- 0 0.0 3.0 22 58
+ 0.2872 2 3 tcp 1040 ------- 0 0.0 3.0 22 58
r 0.288088 2 3 cbr 210 ------- 0 1.0 3.1 18 48
r 0.288868 0 2 tcp 1040 ------- 0 0.0 3.0 23 59
+ 0.288868 2 3 tcp 1040 ------- 0 0.0 3.0 23 59
- 0.288868 2 3 tcp 1040 ------- 0 0.0 3.0 19 54
r 0.288918 1 2 cbr 210 ------- 0 1.0 3.1 21 61
+ 0.288918 2 3 cbr 210 ------- 0 1.0 3.1 21 61
r 0.2897 0 2 tcp 1040 ------- 0 0.0 3.0 24 60
+ 0.2897 2 3 tcp 1040 ------- 0 0.0 3.0 24 60
+ 0.29 1 2 cbr 210 ------- 0 1.0 3.1 24 70
- 0.29 1 2 cbr 210 ------- 0 1.0 3.1 24 70
r 0.290948 0 2 tcp 1040 ------- 0 0.0 3.0 25 62
+ 0.290948 2 3 tcp 1040 ------- 0 0.0 3.0 25 62
- 0.290948 2 3 tcp 1040 ------- 0 0.0 3.0 20 55
r 0.29178 0 2 tcp 1040 ------- 0 0.0 3.0 26 63
+ 0.29178 2 3 tcp 1040 ------- 0 0.0 3.0 26 63
r 0.292208 2 3 tcp 1040 ------- 0 0.0 3.0 15 49
+ 0.292208 3 2 ack 40 ------- 0 3.0 0.0 15 71
- 0.292208 3 2 ack 40 ------- 0 3.0 0.0 15 71
r 0.292668 1 2 cbr 210 ------- 0 1.0 3.1 22 66
+ 0.292668 2 3 cbr 210 ------- 0 1.0 3.1 22 66
r 0.293028 0 2 tcp 1040 ------- 0 0.0 3.0 27 64
+ 0.293028 2 3 tcp 1040 ------- 0 0.0 3.0 27 64
- 0.293028 2 3 cbr 210 ------- 0 1.0 3.1 20 56
- 0.293448 2 3 tcp 1040 ------- 0 0.0 3.0 21 57
+ 0.29375 1 2 cbr 210 ------- 0 1.0 3.1 25 72
- 0.29375 1 2 cbr 210 ------- 0 1.0 3.1 25 72
r 0.29386 0 2 tcp 1040 ------- 0 0.0 3.0 28 65
+ 0.29386 2 3 tcp 1040 ------- 0 0.0 3.0 28 65
r 0.294288 2 3 tcp 1040 ------- 0 0.0 3.0 16 50
+ 0.294288 3 2 ack 40 ------- 0 3.0 0.0 16 73
- 0.294288 3 2 ack 40 ------- 0 3.0 0.0 16 73
r 0.294708 2 3 cbr 210 ------- 0 1.0 3.1 19 51
r 0.295528 0 2 tcp 1040 ------- 0 0.0 3.0 29 67
+ 0.295528 2 3 tcp 1040 ------- 0 0.0 3.0 29 67
- 0.295528 2 3 tcp 1040 ------- 0 0.0 3.0 22 58
r 0.29636 0 2 tcp 1040 ------- 0 0.0 3.0 30 68
+ 0.29636 2 3 tcp 1040 ------- 0 0.0 3.0 30 68
r 0.296418 1 2 cbr 210 ------- 0 1.0 3.1 23 69
+ 0.296418 2 3 cbr 210 ------- 0 1.0 3.1 23 69
r 0.296788 2 3 tcp 1040 ------- 0 0.0 3.0 17 52
+ 0.296788 3 2 ack 40 ------- 0 3.0 0.0 17 74
- 0.296788 3 2 ack 40 ------- 0 3.0 0.0 17 74
+ 0.2975 1 2 cbr 210 ------- 0 1.0 3.1 26 75
- 0.2975 1 2 cbr 210 ------- 0 1.0 3.1 26 75
- 0.297608 2 3 tcp 1040 ------- 0 0.0 3.0 23 59
r 0.298868 2 3 tcp 1040 ------- 0 0.0 3.0 18 53
+ 0.298868 3 2 ack 40 ------- 0 3.0 0.0 18 76
- 0.298868 3 2 ack 40 ------- 0 3.0 0.0 18 76
- 0.299688 2 3 cbr 210 ------- 0 1.0 3.1 21 61
- 0.300108 2 3 tcp 1040 ------- 0 0.0 3.0 24 60
r 0.300168 1 2 cbr 210 ------- 0 1.0 3.1 24 70
+ 0.300168 2 3 cbr 210 ------- 0 1.0 3.1 24 70
r 0.300948 2 3 tcp 1040 ------- 0 0.0 3.0 19 54
+ 0.300948 3 2 ack 40 ------- 0 3.0 0.0 19 77
- 0.300948 3 2 ack 40 ------- 0 3.0 0.0 19 77
+ 0.30125 1 2 cbr 210 ------- 0 1.0 3.1 27 78
- 0.30125 1 2 cbr 210 ------- 0 1.0 3.1 27 78
- 0.302188 2 3 tcp 1040 ------- 0 0.0 3.0 25 62
r 0.302288 3 2 ack 40 ------- 0 3.0 0.0 15 71
+ 0.302288 2 0 ack 40 ------- 0 3.0 0.0 15 71
- 0.302288 2 0 ack 40 ------- 0 3.0 0.0 15 71
r 0.303028 2 3 tcp 1040 ------- 0 0.0 3.0 20 55
+ 0.303028 3 2 ack 40 ------- 0 3.0 0.0 20 79
- 0.303028 3 2 ack 40 ------- 0 3.0 0.0 20 79
r 0.303448 2 3 cbr 210 ------- 0 1.0 3.1 20 56
r 0.303918 1 2 cbr 210 ------- 0 1.0 3.1 25 72
+ 0.303918 2 3 cbr 210 ------- 0 1.0 3.1 25 72
- 0.304268 2 3 tcp 1040 ------- 0 0.0 3.0 26 63
r 0.304368 3 2 ack 40 ------- 0 3.0 0.0 16 73
+ 0.304368 2 0 ack 40 ------- 0 3.0 0.0 16 73
- 0.304368 2 0 ack 40 ------- 0 3.0 0.0 16 73
+ 0.305 1 2 cbr 210 ------- 0 1.0 3.1 28 80
- 0.305 1 2 cbr 210 ------- 0 1.0 3.1 28 80
r 0.305528 2 3 tcp 1040 ------- 0 0.0 3.0 21 57
+ 0.305528 3 2 ack 40 ------- 0 3.0 0.0 21 81
- 0.305528 3 2 ack 40 ------- 0 3.0 0.0 21 81
- 0.306348 2 3 cbr 210 ------- 0 1.0 3.1 22 66
- 0.306768 2 3 tcp 1040 ------- 0 0.0 3.0 27 64
r 0.306868 3 2 ack 40 ------- 0 3.0 0.0 17 74
+ 0.306868 2 0 ack 40 ------- 0 3.0 0.0 17 74
- 0.306868 2 0 ack 40 ------- 0 3.0 0.0 17 74
r 0.307608 2 3 tcp 1040 ------- 0 0.0 3.0 22 58
+ 0.307608 3 2 ack 40 ------- 0 3.0 0.0 22 82
- 0.307608 3 2 ack 40 ------- 0 3.0 0.0 22 82
r 0.307668 1 2 cbr 210 ------- 0 1.0 3.1 26 75
+ 0.307668 2 3 cbr 210 ------- 0 1.0 3.1 26 75
+ 0.30875 1 2 cbr 210 ------- 0 1.0 3.1 29 83
- 0.30875 1 2 cbr 210 ------- 0 1.0 3.1 29 83
- 0.308848 2 3 tcp 1040 ------- 0 0.0 3.0 28 65
r 0.308948 3 2 ack 40 ------- 0 3.0 0.0 18 76
+ 0.308948 2 0 ack 40 ------- 0 3.0 0.0 18 76
- 0.308948 2 0 ack 40 ------- 0 3.0 0.0 18 76
r 0.309688 2 3 tcp 1040 ------- 0 0.0 3.0 23 59
+ 0.309688 3 2 ack 40 ------- 0 3.0 0.0 23 84
- 0.309688 3 2 ack 40 ------- 0 3.0 0.0 23 84
r 0.310108 2 3 cbr 210 ------- 0 1.0 3.1 21 61
- 0.310928 2 3 tcp 1040 ------- 0 0.0 3.0 29 67
r 0.311028 3 2 ack 40 ------- 0 3.0 0.0 19 77
+ 0.311028 2 0 ack 40 ------- 0 3.0 0.0 19 77
- 0.311028 2 0 ack 40 ------- 0 3.0 0.0 19 77
r 0.311418 1 2 cbr 210 ------- 0 1.0 3.1 27 78
+ 0.311418 2 3 cbr 210 ------- 0 1.0 3.1 27 78
r 0.312188 2 3 tcp 1040 ------- 0 0.0 3.0 24 60
+ 0.312188 3 2 ack 40 ------- 0 3.0 0.0 24 85
- 0.312188 3 2 ack 40 ------- 0 3.0 0.0 24 85
r 0.31232 2 0 ack 40 ------- 0 3.0 0.0 15 71
+ 0.31232 0 2 tcp 1040 ------- 0 0.0 3.0 31 86
- 0.31232 0 2 tcp 1040 ------- 0 0.0 3.0 31 86
+ 0.31232 0 2 tcp 1040 ------- 0 0.0 3.0 32 87
+ 0.3125 1 2 cbr 210 ------- 0 1.0 3.1 30 88
- 0.3125 1 2 cbr 210 ------- 0 1.0 3.1 30 88
- 0.313008 2 3 tcp 1040 ------- 0 0.0 3.0 30 68
r 0.313108 3 2 ack 40 ------- 0 3.0 0.0 20 79
+ 0.313108 2 0 ack 40 ------- 0 3.0 0.0 20 79
- 0.313108 2 0 ack 40 ------- 0 3.0 0.0 20 79
- 0.313152 0 2 tcp 1040 ------- 0 0.0 3.0 32 87
r 0.314268 2 3 tcp 1040 ------- 0 0.0 3.0 25 62
+ 0.314268 3 2 ack 40 ------- 0 3.0 0.0 25 89
- 0.314268 3 2 ack 40 ------- 0 3.0 0.0 25 89
r 0.3144 2 0 ack 40 ------- 0 3.0 0.0 16 73
+ 0.3144 0 2 tcp 1040 ------- 0 0.0 3.0 33 90
- 0.3144 0 2 tcp 1040 ------- 0 0.0 3.0 33 90
+ 0.3144 0 2 tcp 1040 ------- 0 0.0 3.0 34 91
- 0.315088 2 3 cbr 210 ------- 0 1.0 3.1 23 69
r 0.315168 1 2 cbr 210 ------- 0 1.0 3.1 28 80
+ 0.315168 2 3 cbr 210 ------- 0 1.0 3.1 28 80
- 0.315232 0 2 tcp 1040 ------- 0 0.0 3.0 34 91
- 0.315508 2 3 cbr 210 ------- 0 1.0 3.1 24 70
r 0.315608 3 2 ack 40 ------- 0 3.0 0.0 21 81
+ 0.315608 2 0 ack 40 ------- 0 3.0 0.0 21 81
- 0.315608 2 0 ack 40 ------- 0 3.0 0.0 21 81
- 0.315928 2 3 cbr 210 ------- 0 1.0 3.1 25 72
+ 0.31625 1 2 cbr 210 ------- 0 1.0 3.1 31 92
- 0.31625 1 2 cbr 210 ------- 0 1.0 3.1 31 92
r 0.316348 2 3 tcp 1040 ------- 0 0.0 3.0 26 63
+ 0.316348 3 2 ack 40 ------- 0 3.0 0.0 26 93
- 0.316348 3 2 ack 40 ------- 0 3.0 0.0 26 93
- 0.316348 2 3 cbr 210 ------- 0 1.0 3.1 26 75
r 0.316768 2 3 cbr 210 ------- 0 1.0 3.1 22 66
- 0.316768 2 3 cbr 210 ------- 0 1.0 3.1 27 78
r 0.3169 2 0 ack 40 ------- 0 3.0 0.0 17 74
+ 0.3169 0 2 tcp 1040 ------- 0 0.0 3.0 35 94
- 0.3169 0 2 tcp 1040 ------- 0 0.0 3.0 35 94
+ 0.3169 0 2 tcp 1040 ------- 0 0.0 3.0 36 95
- 0.317188 2 3 cbr 210 ------- 0 1.0 3.1 28 80
r 0.317688 3 2 ack 40 ------- 0 3.0 0.0 22 82
+ 0.317688 2 0 ack 40 ------- 0 3.0 0.0 22 82
- 0.317688 2 0 ack 40 ------- 0 3.0 0.0 22 82
- 0.317732 0 2 tcp 1040 ------- 0 0.0 3.0 36 95
r 0.318848 2 3 tcp 1040 ------- 0 0.0 3.0 27 64
+ 0.318848 3 2 ack 40 ------- 0 3.0 0.0 27 96
- 0.318848 3 2 ack 40 ------- 0 3.0 0.0 27 96
r 0.318918 1 2 cbr 210 ------- 0 1.0 3.1 29 83
+ 0.318918 2 3 cbr 210 ------- 0 1.0 3.1 29 83
- 0.318918 2 3 cbr 210 ------- 0 1.0 3.1 29 83
r 0.31898 2 0 ack 40 ------- 0 3.0 0.0 18 76
+ 0.31898 0 2 tcp 1040 ------- 0 0.0 3.0 37 97
- 0.31898 0 2 tcp 1040 ------- 0 0.0 3.0 37 97
+ 0.31898 0 2 tcp 1040 ------- 0 0.0 3.0 38 98
r 0.319768 3 2 ack 40 ------- 0 3.0 0.0 23 84
+ 0.319768 2 0 ack 40 ------- 0 3.0 0.0 23 84
- 0.319768 2 0 ack 40 ------- 0 3.0 0.0 23 84
- 0.319812 0 2 tcp 1040 ------- 0 0.0 3.0 38 98
+ 0.32 1 2 cbr 210 ------- 0 1.0 3.1 32 99
- 0.32 1 2 cbr 210 ------- 0 1.0 3.1 32 99
r 0.320928 2 3 tcp 1040 ------- 0 0.0 3.0 28 65
+ 0.320928 3 2 ack 40 ------- 0 3.0 0.0 28 100
- 0.320928 3 2 ack 40 ------- 0 3.0 0.0 28 100
r 0.32106 2 0 ack 40 ------- 0 3.0 0.0 19 77
+ 0.32106 0 2 tcp 1040 ------- 0 0.0 3.0 39 101
- 0.32106 0 2 tcp 1040 ------- 0 0.0 3.0 39 101
r 0.322268 3 2 ack 40 ------- 0 3.0 0.0 24 85
+ 0.322268 2 0 ack 40 ------- 0 3.0 0.0 24 85
- 0.322268 2 0 ack 40 ------- 0 3.0 0.0 24 85
r 0.322668 1 2 cbr 210 ------- 0 1.0 3.1 30 88
+ 0.322668 2 3 cbr 210 ------- 0 1.0 3.1 30 88
- 0.322668 2 3 cbr 210 ------- 0 1.0 3.1 30 88
r 0.323008 2 3 tcp 1040 ------- 0 0.0 3.0 29 67
+ 0.323008 3 2 ack 40 ------- 0 3.0 0.0 29 102
- 0.323008 3 2 ack 40 ------- 0 3.0 0.0 29 102
r 0.32314 2 0 ack 40 ------- 0 3.0 0.0 20 79
+ 0.32314 0 2 tcp 1040 ------- 0 0.0 3.0 40 103
- 0.32314 0 2 tcp 1040 ------- 0 0.0 3.0 40 103
r 0.323152 0 2 tcp 1040 ------- 0 0.0 3.0 31 86
+ 0.323152 2 3 tcp 1040 ------- 0 0.0 3.0 31 86
- 0.323152 2 3 tcp 1040 ------- 0 0.0 3.0 31 86
+ 0.32375 1 2 cbr 210 ------- 0 1.0 3.1 33 104
- 0.32375 1 2 cbr 210 ------- 0 1.0 3.1 33 104
r 0.323984 0 2 tcp 1040 ------- 0 0.0 3.0 32 87
+ 0.323984 2 3 tcp 1040 ------- 0 0.0 3.0 32 87
r 0.324348 3 2 ack 40 ------- 0 3.0 0.0 25 89
+ 0.324348 2 0 ack 40 ------- 0 3.0 0.0 25 89
- 0.324348 2 0 ack 40 ------- 0 3.0 0.0 25 89
r 0.325088 2 3 tcp 1040 ------- 0 0.0 3.0 30 68
+ 0.325088 3 2 ack 40 ------- 0 3.0 0.0 30 105
- 0.325088 3 2 ack 40 ------- 0 3.0 0.0 30 105
r 0.325232 0 2 tcp 1040 ------- 0 0.0 3.0 33 90
+ 0.325232 2 3 tcp 1040 ------- 0 0.0 3.0 33 90
- 0.325232 2 3 tcp 1040 ------- 0 0.0 3.0 32 87
r 0.325508 2 3 cbr 210 ------- 0 1.0 3.1 23 69
r 0.32564 2 0 ack 40 ------- 0 3.0 0.0 21 81
+ 0.32564 0 2 tcp 1040 ------- 0 0.0 3.0 41 106
- 0.32564 0 2 tcp 1040 ------- 0 0.0 3.0 41 106
r 0.325928 2 3 cbr 210 ------- 0 1.0 3.1 24 70
r 0.326064 0 2 tcp 1040 ------- 0 0.0 3.0 34 91
+ 0.326064 2 3 tcp 1040 ------- 0 0.0 3.0 34 91
r 0.326348 2 3 cbr 210 ------- 0 1.0 3.1 25 72
r 0.326418 1 2 cbr 210 ------- 0 1.0 3.1 31 92
+ 0.326418 2 3 cbr 210 ------- 0 1.0 3.1 31 92
r 0.326428 3 2 ack 40 ------- 0 3.0 0.0 26 93
+ 0.326428 2 0 ack 40 ------- 0 3.0 0.0 26 93
- 0.326428 2 0 ack 40 ------- 0 3.0 0.0 26 93
r 0.326768 2 3 cbr 210 ------- 0 1.0 3.1 26 75
r 0.327188 2 3 cbr 210 ------- 0 1.0 3.1 27 78
- 0.327312 2 3 tcp 1040 ------- 0 0.0 3.0 33 90
+ 0.3275 1 2 cbr 210 ------- 0 1.0 3.1 34 107
- 0.3275 1 2 cbr 210 ------- 0 1.0 3.1 34 107
r 0.327608 2 3 cbr 210 ------- 0 1.0 3.1 28 80
r 0.32772 2 0 ack 40 ------- 0 3.0 0.0 22 82
+ 0.32772 0 2 tcp 1040 ------- 0 0.0 3.0 42 108
- 0.32772 0 2 tcp 1040 ------- 0 0.0 3.0 42 108
r 0.327732 0 2 tcp 1040 ------- 0 0.0 3.0 35 94
+ 0.327732 2 3 tcp 1040 ------- 0 0.0 3.0 35 94
r 0.328564 0 2 tcp 1040 ------- 0 0.0 3.0 36 95
+ 0.328564 2 3 tcp 1040 ------- 0 0.0 3.0 36 95
r 0.328928 3 2 ack 40 ------- 0 3.0 0.0 27 96
+ 0.328928 2 0 ack 40 ------- 0 3.0 0.0 27 96
- 0.328928 2 0 ack 40 ------- 0 3.0 0.0 27 96
r 0.329338 2 3 cbr 210 ------- 0 1.0 3.1 29 83
- 0.329392 2 3 tcp 1040 ------- 0 0.0 3.0 34 91
r 0.3298 2 0 ack 40 ------- 0 3.0 0.0 23 84
+ 0.3298 0 2 tcp 1040 ------- 0 0.0 3.0 43 109
- 0.3298 0 2 tcp 1040 ------- 0 0.0 3.0 43 109
r 0.329812 0 2 tcp 1040 ------- 0 0.0 3.0 37 97
+ 0.329812 2 3 tcp 1040 ------- 0 0.0 3.0 37 97
r 0.330168 1 2 cbr 210 ------- 0 1.0 3.1 32 99
+ 0.330168 2 3 cbr 210 ------- 0 1.0 3.1 32 99
r 0.330644 0 2 tcp 1040 ------- 0 0.0 3.0 38 98
+ 0.330644 2 3 tcp 1040 ------- 0 0.0 3.0 38 98
r 0.331008 3 2 ack 40 ------- 0 3.0 0.0 28 100
+ 0.331008 2 0 ack 40 ------- 0 3.0 0.0 28 100
- 0.331008 2 0 ack 40 ------- 0 3.0 0.0 28 100
+ 0.33125 1 2 cbr 210 ------- 0 1.0 3.1 35 110
- 0.33125 1 2 cbr 210 ------- 0 1.0 3.1 35 110
- 0.331472 2 3 cbr 210 ------- 0 1.0 3.1 31 92
r 0.331892 0 2 tcp 1040 ------- 0 0.0 3.0 39 101
+ 0.331892 2 3 tcp 1040 ------- 0 0.0 3.0 39 101
- 0.331892 2 3 tcp 1040 ------- 0 0.0 3.0 35 94
r 0.3323 2 0 ack 40 ------- 0 3.0 0.0 24 85
+ 0.3323 0 2 tcp 1040 ------- 0 0.0 3.0 44 111
- 0.3323 0 2 tcp 1040 ------- 0 0.0 3.0 44 111
r 0.333088 2 3 cbr 210 ------- 0 1.0 3.1 30 88
r 0.333088 3 2 ack 40 ------- 0 3.0 0.0 29 102
+ 0.333088 2 0 ack 40 ------- 0 3.0 0.0 29 102
- 0.333088 2 0 ack 40 ------- 0 3.0 0.0 29 102
r 0.333918 1 2 cbr 210 ------- 0 1.0 3.1 33 104
+ 0.333918 2 3 cbr 210 ------- 0 1.0 3.1 33 104
r 0.333972 0 2 tcp 1040 ------- 0 0.0 3.0 40 103
+ 0.333972 2 3 tcp 1040 ------- 0 0.0 3.0 40 103
- 0.333972 2 3 tcp 1040 ------- 0 0.0 3.0 36 95
r 0.33438 2 0 ack 40 ------- 0 3.0 0.0 25 89
+ 0.33438 0 2 tcp 1040 ------- 0 0.0 3.0 45 112
- 0.33438 0 2 tcp 1040 ------- 0 0.0 3.0 45 112
+ 0.335 1 2 cbr 210 ------- 0 1.0 3.1 36 113
- 0.335 1 2 cbr 210 ------- 0 1.0 3.1 36 113
r 0.335168 3 2 ack 40 ------- 0 3.0 0.0 30 105
+ 0.335168 2 0 ack 40 ------- 0 3.0 0.0 30 105
- 0.335168 2 0 ack 40 ------- 0 3.0 0.0 30 105
r 0.335232 2 3 tcp 1040 ------- 0 0.0 3.0 31 86
+ 0.335232 3 2 ack 40 ------- 0 3.0 0.0 31 114
- 0.335232 3 2 ack 40 ------- 0 3.0 0.0 31 114
- 0.336052 2 3 tcp 1040 ------- 0 0.0 3.0 37 97
r 0.33646 2 0 ack 40 ------- 0 3.0 0.0 26 93
+ 0.33646 0 2 tcp 1040 ------- 0 0.0 3.0 46 115
- 0.33646 0 2 tcp 1040 ------- 0 0.0 3.0 46 115
r 0.336472 0 2 tcp 1040 ------- 0 0.0 3.0 41 106
+ 0.336472 2 3 tcp 1040 ------- 0 0.0 3.0 41 106
r 0.337312 2 3 tcp 1040 ------- 0 0.0 3.0 32 87
+ 0.337312 3 2 ack 40 ------- 0 3.0 0.0 32 116
- 0.337312 3 2 ack 40 ------- 0 3.0 0.0 32 116
r 0.337668 1 2 cbr 210 ------- 0 1.0 3.1 34 107
+ 0.337668 2 3 cbr 210 ------- 0 1.0 3.1 34 107
- 0.338132 2 3 cbr 210 ------- 0 1.0 3.1 32 99
r 0.338552 0 2 tcp 1040 ------- 0 0.0 3.0 42 108
+ 0.338552 2 3 tcp 1040 ------- 0 0.0 3.0 42 108
- 0.338552 2 3 tcp 1040 ------- 0 0.0 3.0 38 98