+ 0.5 0 1 cbr 210 ------- 0 0.0 2.0 0 0
- 0.5 0 1 cbr 210 ------- 0 0.0 2.0 0 0
+ 0.50375 0 1 cbr 210 ------- 0 0.0 2.0 1 1
- 0.50375 0 1 cbr 210 ------- 0 0.0 2.0 1 1
+ 0.5075 0 1 cbr 210 ------- 0 0.0 2.0 2 2
- 0.5075 0 1 cbr 210 ------- 0 0.0 2.0 2 2
+ 0.51125 0 1 cbr 210 ------- 0 0.0 2.0 3 3
- 0.51125 0 1 cbr 210 ------- 0 0.0 2.0 3 3
+ 0.515 0 1 cbr 210 ------- 0 0.0 2.0 4 4
- 0.515 0 1 cbr 210 ------- 0 0.0 2.0 4 4
+ 0.51875 0 1 cbr 210 ------- 0 0.0 2.0 5 5
- 0.51875 0 1 cbr 210 ------- 0 0.0 2.0 5 5
r 0.52168 0 1 cbr 210 ------- 0 0.0 2.0 0 0
+ 0.52168 1 2 cbr 210 ------- 0 0.0 2.0 0 0
- 0.52168 1 2 cbr 210 ------- 0 0.0 2.0 0 0
+ 0.5225 0 1 cbr 210 ------- 0 0.0 2.0 6 6
- 0.5225 0 1 cbr 210 ------- 0 0.0 2.0 6 6
r 0.52543 0 1 cbr 210 ------- 0 0.0 2.0 1 1
+ 0.52543 1 2 cbr 210 ------- 0 0.0 2.0 1 1
+ 0.52625 0 1 cbr 210 ------- 0 0.0 2.0 7 7
- 0.52625 0 1 cbr 210 ------- 0 0.0 2.0 7 7
- 0.52728 1 2 cbr 210 ------- 0 0.0 2.0 1 1
r 0.52918 0 1 cbr 210 ------- 0 0.0 2.0 2 2
+ 0.52918 1 2 cbr 210 ------- 0 0.0 2.0 2 2
+ 0.53 0 1 cbr 210 ------- 0 0.0 2.0 8 8
- 0.53 0 1 cbr 210 ------- 0 0.0 2.0 8 8
- 0.53288 1 2 cbr 210 ------- 0 0.0 2.0 2 2
r 0.53293 0 1 cbr 210 ------- 0 0.0 2.0 3 3
+ 0.53293 1 2 cbr 210 ------- 0 0.0 2.0 3 3
+ 0.53375 0 1 cbr 210 ------- 0 0.0 2.0 9 9
- 0.53375 0 1 cbr 210 ------- 0 0.0 2.0 9 9
r 0.53668 0 1 cbr 210 ------- 0 0.0 2.0 4 4
+ 0.53668 1 2 cbr 210 ------- 0 0.0 2.0 4 4
+ 0.5375 0 1 cbr 210 ------- 0 0.0 2.0 10 10
- 0.5375 0 1 cbr 210 ------- 0 0.0 2.0 10 10
- 0.53848 1 2 cbr 210 ------- 0 0.0 2.0 3 3
r 0.54043 0 1 cbr 210 ------- 0 0.0 2.0 5 5
+ 0.54043 1 2 cbr 210 ------- 0 0.0 2.0 5 5
+ 0.54125 0 1 cbr 210 ------- 0 0.0 2.0 11 11
- 0.54125 0 1 cbr 210 ------- 0 0.0 2.0 11 11
- 0.54408 1 2 cbr 210 ------- 0 0.0 2.0 4 4
r 0.54418 0 1 cbr 210 ------- 0 0.0 2.0 6 6
+ 0.54418 1 2 cbr 210 ------- 0 0.0 2.0 6 6
+ 0.545 0 1 cbr 210 ------- 0 0.0 2.0 12 12
- 0.545 0 1 cbr 210 ------- 0 0.0 2.0 12 12
r 0.54728 1 2 cbr 210 ------- 0 0.0 2.0 0 0
r 0.54793 0 1 cbr 210 ------- 0 0.0 2.0 7 7
+ 0.54793 1 2 cbr 210 ------- 0 0.0 2.0 7 7
+ 0.54875 0 1 cbr 210 ------- 0 0.0 2.0 13 13
- 0.54875 0 1 cbr 210 ------- 0 0.0 2.0 13 13
- 0.54968 1 2 cbr 210 ------- 0 0.0 2.0 5 5
r 0.55168 0 1 cbr 210 ------- 0 0.0 2.0 8 8
+ 0.55168 1 2 cbr 210 ------- 0 0.0 2.0 8 8
+ 0.5525 0 1 cbr 210 ------- 0 0.0 2.0 14 14
- 0.5525 0 1 cbr 210 ------- 0 0.0 2.0 14 14
r 0.55288 1 2 cbr 210 ------- 0 0.0 2.0 1 1
- 0.55528 1 2 cbr 210 ------- 0 0.0 2.0 6 6
r 0.55543 0 1 cbr 210 ------- 0 0.0 2.0 9 9
+ 0.55543 1 2 cbr 210 ------- 0 0.0 2.0 9 9
+ 0.55625 0 1 cbr 210 ------- 0 0.0 2.0 15 15
- 0.55625 0 1 cbr 210 ------- 0 0.0 2.0 15 15
r 0.55848 1 2 cbr 210 ------- 0 0.0 2.0 2 2
r 0.55918 0 1 cbr 210 ------- 0 0.0 2.0 10 10
+ 0.55918 1 2 cbr 210 ------- 0 0.0 2.0 10 10
+ 0.56 0 1 cbr 210 ------- 0 0.0 2.0 16 16
- 0.56 0 1 cbr 210 ------- 0 0.0 2.0 16 16
- 0.56088 1 2 cbr 210 ------- 0 0.0 2.0 7 7
r 0.56293 0 1 cbr 210 ------- 0 0.0 2.0 11 11
+ 0.56293 1 2 cbr 210 ------- 0 0.0 2.0 11 11
+ 0.56375 0 1 cbr 210 ------- 0 0.0 2.0 17 17
- 0.56375 0 1 cbr 210 ------- 0 0.0 2.0 17 17
r 0.56408 1 2 cbr 210 ------- 0 0.0 2.0 3 3
- 0.56648 1 2 cbr 210 ------- 0 0.0 2.0 8 8
r 0.56668 0 1 cbr 210 ------- 0 0.0 2.0 12 12
+ 0.56668 1 2 cbr 210 ------- 0 0.0 2.0 12 12
+ 0.5675 0 1 cbr 210 ------- 0 0.0 2.0 18 18
- 0.5675 0 1 cbr 210 ------- 0 0.0 2.0 18 18
r 0.56968 1 2 cbr 210 ------- 0 0.0 2.0 4 4
r 0.57043 0 1 cbr 210 ------- 0 0.0 2.0 13 13
+ 0.57043 1 2 cbr 210 ------- 0 0.0 2.0 13 13
+ 0.57125 0 1 cbr 210 ------- 0 0.0 2.0 19 19
- 0.57125 0 1 cbr 210 ------- 0 0.0 2.0 19 19
- 0.57208 1 2 cbr 210 ------- 0 0.0 2.0 9 9
r 0.57418 0 1 cbr 210 ------- 0 0.0 2.0 14 14
+ 0.57418 1 2 cbr 210 ------- 0 0.0 2.0 14 14
+ 0.575 0 1 cbr 210 ------- 0 0.0 2.0 20 20
- 0.575 0 1 cbr 210 ------- 0 0.0 2.0 20 20
r 0.57528 1 2 cbr 210 ------- 0 0.0 2.0 5 5
- 0.57768 1 2 cbr 210 ------- 0 0.0 2.0 10 10
r 0.57793 0 1 cbr 210 ------- 0 0.0 2.0 15 15
+ 0.57793 1 2 cbr 210 ------- 0 0.0 2.0 15 15
+ 0.57875 0 1 cbr 210 ------- 0 0.0 2.0 21 21
- 0.57875 0 1 cbr 210 ------- 0 0.0 2.0 21 21
r 0.58088 1 2 cbr 210 ------- 0 0.0 2.0 6 6
r 0.58168 0 1 cbr 210 ------- 0 0.0 2.0 16 16
+ 0.58168 1 2 cbr 210 ------- 0 0.0 2.0 16 16
+ 0.5825 0 1 cbr 210 ------- 0 0.0 2.0 22 22
- 0.5825 0 1 cbr 210 ------- 0 0.0 2.0 22 22
- 0.58328 1 2 cbr 210 ------- 0 0.0 2.0 11 11
r 0.58543 0 1 cbr 210 ------- 0 0.0 2.0 17 17
+ 0.58543 1 2 cbr 210 ------- 0 0.0 2.0 17 17
+ 0.58625 0 1 cbr 210 ------- 0 0.0 2.0 23 23
- 0.58625 0 1 cbr 210 ------- 0 0.0 2.0 23 23
r 0.58648 1 2 cbr 210 ------- 0 0.0 2.0 7 7
- 0.58888 1 2 cbr 210 ------- 0 0.0 2.0 12 12
r 0.58918 0 1 cbr 210 ------- 0 0.0 2.0 18 18
+ 0.58918 1 2 cbr 210 ------- 0 0.0 2.0 18 18
+ 0.59 0 1 cbr 210 ------- 0 0.0 2.0 24 24
- 0.59 0 1 cbr 210 ------- 0 0.0 2.0 24 24
r 0.59208 1 2 cbr 210 ------- 0 0.0 2.0 8 8
r 0.59293 0 1 cbr 210 ------- 0 0.0 2.0 19 19
+ 0.59293 1 2 cbr 210 ------- 0 0.0 2.0 19 19
+ 0.59375 0 1 cbr 210 ------- 0 0.0 2.0 25 25
- 0.59375 0 1 cbr 210 ------- 0 0.0 2.0 25 25
- 0.59448 1 2 cbr 210 ------- 0 0.0 2.0 13 13
r 0.59668 0 1 cbr 210 ------- 0 0.0 2.0 20 20
+ 0.59668 1 2 cbr 210 ------- 0 0.0 2.0 20 20
+ 0.5975 0 1 cbr 210 ------- 0 0.0 2.0 26 26
- 0.5975 0 1 cbr 210 ------- 0 0.0 2.0 26 26
r 0.59768 1 2 cbr 210 ------- 0 0.0 2.0 9 9
- 0.60008 1 2 cbr 210 ------- 0 0.0 2.0 14 14
r 0.60043 0 1 cbr 210 ------- 0 0.0 2.0 21 21
+ 0.60043 1 2 cbr 210 ------- 0 0.0 2.0 21 21
+ 0.60125 0 1 cbr 210 ------- 0 0.0 2.0 27 27
- 0.60125 0 1 cbr 210 ------- 0 0.0 2.0 27 27
r 0.60328 1 2 cbr 210 ------- 0 0.0 2.0 10 10
r 0.60418 0 1 cbr 210 ------- 0 0.0 2.0 22 22
+ 0.60418 1 2 cbr 210 ------- 0 0.0 2.0 22 22
+ 0.605 0 1 cbr 210 ------- 0 0.0 2.0 28 28
- 0.605 0 1 cbr 210 ------- 0 0.0 2.0 28 28
- 0.60568 1 2 cbr 210 ------- 0 0.0 2.0 15 15
r 0.60793 0 1 cbr 210 ------- 0 0.0 2.0 23 23
+ 0.60793 1 2 cbr 210 ------- 0 0.0 2.0 23 23
+ 0.60875 0 1 cbr 210 ------- 0 0.0 2.0 29 29
- 0.60875 0 1 cbr 210 ------- 0 0.0 2.0 29 29
r 0.60888 1 2 cbr 210 ------- 0 0.0 2.0 11 11
- 0.61128 1 2 cbr 210 ------- 0 0.0 2.0 16 16
r 0.61168 0 1 cbr 210 ------- 0 0.0 2.0 24 24
+ 0.61168 1 2 cbr 210 ------- 0 0.0 2.0 24 24
+ 0.6125 0 1 cbr 210 ------- 0 0.0 2.0 30 30
- 0.6125 0 1 cbr 210 ------- 0 0.0 2.0 30 30
r 0.61448 1 2 cbr 210 ------- 0 0.0 2.0 12 12
r 0.61543 0 1 cbr 210 ------- 0 0.0 2.0 25 25
+ 0.61543 1 2 cbr 210 ------- 0 0.0 2.0 25 25
+ 0.61625 0 1 cbr 210 ------- 0 0.0 2.0 31 31
- 0.61625 0 1 cbr 210 ------- 0 0.0 2.0 31 31
- 0.61688 1 2 cbr 210 ------- 0 0.0 2.0 17 17
r 0.61918 0 1 cbr 210 ------- 0 0.0 2.0 26 26
+ 0.61918 1 2 cbr 210 ------- 0 0.0 2.0 26 26
+ 0.62 0 1 cbr 210 ------- 0 0.0 2.0 32 32
- 0.62 0 1 cbr 210 ------- 0 0.0 2.0 32 32
r 0.62008 1 2 cbr 210 ------- 0 0.0 2.0 13 13
- 0.62248 1 2 cbr 210 ------- 0 0.0 2.0 18 18
r 0.62293 0 1 cbr 210 ------- 0 0.0 2.0 27 27
+ 0.62293 1 2 cbr 210 ------- 0 0.0 2.0 27 27
+ 0.62375 0 1 cbr 210 ------- 0 0.0 2.0 33 33
- 0.62375 0 1 cbr 210 ------- 0 0.0 2.0 33 33
r 0.62568 1 2 cbr 210 ------- 0 0.0 2.0 14 14
r 0.62668 0 1 cbr 210 ------- 0 0.0 2.0 28 28
+ 0.62668 1 2 cbr 210 ------- 0 0.0 2.0 28 28
+ 0.6275 0 1 cbr 210 ------- 0 0.0 2.0 34 34
- 0.6275 0 1 cbr 210 ------- 0 0.0 2.0 34 34
- 0.62808 1 2 cbr 210 ------- 0 0.0 2.0 19 19
r 0.63043 0 1 cbr 210 ------- 0 0.0 2.0 29 29
+ 0.63043 1 2 cbr 210 ------- 0 0.0 2.0 29 29
+ 0.63125 0 1 cbr 210 ------- 0 0.0 2.0 35 35
- 0.63125 0 1 cbr 210 ------- 0 0.0 2.0 35 35
r 0.63128 1 2 cbr 210 ------- 0 0.0 2.0 15 15
- 0.63368 1 2 cbr 210 ------- 0 0.0 2.0 20 20
r 0.63418 0 1 cbr 210 ------- 0 0.0 2.0 30 30
+ 0.63418 1 2 cbr 210 ------- 0 0.0 2.0 30 30
+ 0.635 0 1 cbr 210 ------- 0 0.0 2.0 36 36
- 0.635 0 1 cbr 210 ------- 0 0.0 2.0 36 36
r 0.63688 1 2 cbr 210 ------- 0 0.0 2.0 16 16
r 0.63793 0 1 cbr 210 ------- 0 0.0 2.0 31 31
+ 0.63793 1 2 cbr 210 ------- 0 0.0 2.0 31 31
+ 0.63875 0 1 cbr 210 ------- 0 0.0 2.0 37 37
- 0.63875 0 1 cbr 210 ------- 0 0.0 2.0 37 37
- 0.63928 1 2 cbr 210 ------- 0 0.0 2.0 21 21
r 0.64168 0 1 cbr 210 ------- 0 0.0 2.0 32 32
+ 0.64168 1 2 cbr 210 ------- 0 0.0 2.0 32 32
r 0.64248 1 2 cbr 210 ------- 0 0.0 2.0 17 17
+ 0.6425 0 1 cbr 210 ------- 0 0.0 2.0 38 38
- 0.6425 0 1 cbr 210 ------- 0 0.0 2.0 38 38
- 0.64488 1 2 cbr 210 ------- 0 0.0 2.0 22 22
r 0.64543 0 1 cbr 210 ------- 0 0.0 2.0 33 33
+ 0.64543 1 2 cbr 210 ------- 0 0.0 2.0 33 33
+ 0.64625 0 1 cbr 210 ------- 0 0.0 2.0 39 39
- 0.64625 0 1 cbr 210 ------- 0 0.0 2.0 39 39
r 0.64808 1 2 cbr 210 ------- 0 0.0 2.0 18 18
r 0.64918 0 1 cbr 210 ------- 0 0.0 2.0 34 34
+ 0.64918 1 2 cbr 210 ------- 0 0.0 2.0 34 34
+ 0.65 0 1 cbr 210 ------- 0 0.0 2.0 40 40
- 0.65 0 1 cbr 210 ------- 0 0.0 2.0 40 40
- 0.65048 1 2 cbr 210 ------- 0 0.0 2.0 23 23
r 0.65293 0 1 cbr 210 ------- 0 0.0 2.0 35 35
+ 0.65293 1 2 cbr 210 ------- 0 0.0 2.0 35 35
r 0.65368 1 2 cbr 210 ------- 0 0.0 2.0 19 19
+ 0.65375 0 1 cbr 210 ------- 0 0.0 2.0 41 41
- 0.65375 0 1 cbr 210 ------- 0 0.0 2.0 41 41
- 0.65608 1 2 cbr 210 ------- 0 0.0 2.0 24 24
r 0.65668 0 1 cbr 210 ------- 0 0.0 2.0 36 36
+ 0.65668 1 2 cbr 210 ------- 0 0.0 2.0 36 36
+ 0.6575 0 1 cbr 210 ------- 0 0.0 2.0 42 42
- 0.6575 0 1 cbr 210 ------- 0 0.0 2.0 42 42
r 0.65928 1 2 cbr 210 ------- 0 0.0 2.0 20 20
r 0.66043 0 1 cbr 210 ------- 0 0.0 2.0 37 37
+ 0.66043 1 2 cbr 210 ------- 0 0.0 2.0 37 37
+ 0.66125 0 1 cbr 210 ------- 0 0.0 2.0 43 43
- 0.66125 0 1 cbr 210 ------- 0 0.0 2.0 43 43
- 0.66168 1 2 cbr 210 ------- 0 0.0 2.0 25 25
r 0.66418 0 1 cbr 210 ------- 0 0.0 2.0 38 38
+ 0.66418 1 2 cbr 210 ------- 0 0.0 2.0 38 38
r 0.66488 1 2 cbr 210 ------- 0 0.0 2.0 21 21
+ 0.665 0 1 cbr 210 ------- 0 0.0 2.0 44 44
- 0.665 0 1 cbr 210 ------- 0 0.0 2.0 44 44
- 0.66728 1 2 cbr 210 ------- 0 0.0 2.0 26 26
r 0.66793 0 1 cbr 210 ------- 0 0.0 2.0 39 39
+ 0.66793 1 2 cbr 210 ------- 0 0.0 2.0 39 39
+ 0.66875 0 1 cbr 210 ------- 0 0.0 2.0 45 45
- 0.66875 0 1 cbr 210 ------- 0 0.0 2.0 45 45
r 0.67048 1 2 cbr 210 ------- 0 0.0 2.0 22 22
r 0.67168 0 1 cbr 210 ------- 0 0.0 2.0 40 40
+ 0.67168 1 2 cbr 210 ------- 0 0.0 2.0 40 40
+ 0.6725 0 1 cbr 210 ------- 0 0.0 2.0 46 46
- 0.6725 0 1 cbr 210 ------- 0 0.0 2.0 46 46
- 0.67288 1 2 cbr 210 ------- 0 0.0 2.0 27 27
r 0.67543 0 1 cbr 210 ------- 0 0.0 2.0 41 41
+ 0.67543 1 2 cbr 210 ------- 0 0.0 2.0 41 41
r 0.67608 1 2 cbr 210 ------- 0 0.0 2.0 23 23
+ 0.67625 0 1 cbr 210 ------- 0 0.0 2.0 47 47
- 0.67625 0 1 cbr 210 ------- 0 0.0 2.0 47 47
- 0.67848 1 2 cbr 210 ------- 0 0.0 2.0 28 28
r 0.67918 0 1 cbr 210 ------- 0 0.0 2.0 42 42
+ 0.67918 1 2 cbr 210 ------- 0 0.0 2.0 42 42
+ 0.68 0 1 cbr 210 ------- 0 0.0 2.0 48 48
- 0.68 0 1 cbr 210 ------- 0 0.0 2.0 48 48
r 0.68168 1 2 cbr 210 ------- 0 0.0 2.0 24 24
r 0.68293 0 1 cbr 210 ------- 0 0.0 2.0 43 43
+ 0.68293 1 2 cbr 210 ------- 0 0.0 2.0 43 43
+ 0.68375 0 1 cbr 210 ------- 0 0.0 2.0 49 49
- 0.68375 0 1 cbr 210 ------- 0 0.0 2.0 49 49
- 0.68408 1 2 cbr 210 ------- 0 0.0 2.0 29 29
r 0.68668 0 1 cbr 210 ------- 0 0.0 2.0 44 44
+ 0.68668 1 2 cbr 210 ------- 0 0.0 2.0 44 44
r 0.68728 1 2 cbr 210 ------- 0 0.0 2.0 25 25
+ 0.6875 0 1 cbr 210 ------- 0 0.0 2.0 50 50
- 0.6875 0 1 cbr 210 ------- 0 0.0 2.0 50 50
- 0.68968 1 2 cbr 210 ------- 0 0.0 2.0 30 30
r 0.69043 0 1 cbr 210 ------- 0 0.0 2.0 45 45
+ 0.69043 1 2 cbr 210 ------- 0 0.0 2.0 45 45
+ 0.69125 0 1 cbr 210 ------- 0 0.0 2.0 51 51
- 0.69125 0 1 cbr 210 ------- 0 0.0 2.0 51 51
r 0.69288 1 2 cbr 210 ------- 0 0.0 2.0 26 26
r 0.69418 0 1 cbr 210 ------- 0 0.0 2.0 46 46
+ 0.69418 1 2 cbr 210 ------- 0 0.0 2.0 46 46
+ 0.695 0 1 cbr 210 ------- 0 0.0 2.0 52 52
- 0.695 0 1 cbr 210 ------- 0 0.0 2.0 52 52
- 0.69528 1 2 cbr 210 ------- 0 0.0 2.0 31 31
r 0.69793 0 1 cbr 210 ------- 0 0.0 2.0 47 47
+ 0.69793 1 2 cbr 210 ------- 0 0.0 2.0 47 47
r 0.69848 1 2 cbr 210 ------- 0 0.0 2.0 27 27
+ 0.69875 0 1 cbr 210 ------- 0 0.0 2.0 53 53
- 0.69875 0 1 cbr 210 ------- 0 0.0 2.0 53 53
- 0.70088 1 2 cbr 210 ------- 0 0.0 2.0 32 32
r 0.70168 0 1 cbr 210 ------- 0 0.0 2.0 48 48
+ 0.70168 1 2 cbr 210 ------- 0 0.0 2.0 48 48
+ 0.7025 0 1 cbr 210 ------- 0 0.0 2.0 54 54
- 0.7025 0 1 cbr 210 ------- 0 0.0 2.0 54 54
r 0.70408 1 2 cbr 210 ------- 0 0.0 2.0 28 28
r 0.70543 0 1 cbr 210 ------- 0 0.0 2.0 49 49
+ 0.70543 1 2 cbr 210 ------- 0 0.0 2.0 49 49
+ 0.70625 0 1 cbr 210 ------- 0 0.0 2.0 55 55
- 0.70625 0 1 cbr 210 ------- 0 0.0 2.0 55 55
- 0.70648 1 2 cbr 210 ------- 0 0.0 2.0 33 33
r 0.70918 0 1 cbr 210 ------- 0 0.0 2.0 50 50
+ 0.70918 1 2 cbr 210 ------- 0 0.0 2.0 50 50
r 0.70968 1 2 cbr 210 ------- 0 0.0 2.0 29 29
+ 0.71 0 1 cbr 210 ------- 0 0.0 2.0 56 56
- 0.71 0 1 cbr 210 ------- 0 0.0 2.0 56 56
- 0.71208 1 2 cbr 210 ------- 0 0.0 2.0 34 34
r 0.71293 0 1 cbr 210 ------- 0 0.0 2.0 51 51
+ 0.71293 1 2 cbr 210 ------- 0 0.0 2.0 51 51
+ 0.71375 0 1 cbr 210 ------- 0 0.0 2.0 57 57
- 0.71375 0 1 cbr 210 ------- 0 0.0 2.0 57 57
r 0.71528 1 2 cbr 210 ------- 0 0.0 2.0 30 30
r 0.71668 0 1 cbr 210 ------- 0 0.0 2.0 52 52
+ 0.71668 1 2 cbr 210 ------- 0 0.0 2.0 52 52
+ 0.7175 0 1 cbr 210 ------- 0 0.0 2.0 58 58
- 0.7175 0 1 cbr 210 ------- 0 0.0 2.0 58 58
- 0.71768 1 2 cbr 210 ------- 0 0.0 2.0 35 35
r 0.72043 0 1 cbr 210 ------- 0 0.0 2.0 53 53
+ 0.72043 1 2 cbr 210 ------- 0 0.0 2.0 53 53
r 0.72088 1 2 cbr 210 ------- 0 0.0 2.0 31 31
+ 0.72125 0 1 cbr 210 ------- 0 0.0 2.0 59 59
- 0.72125 0 1 cbr 210 ------- 0 0.0 2.0 59 59
- 0.72328 1 2 cbr 210 ------- 0 0.0 2.0 36 36
r 0.72418 0 1 cbr 210 ------- 0 0.0 2.0 54 54
+ 0.72418 1 2 cbr 210 ------- 0 0.0 2.0 54 54
+ 0.725 0 1 cbr 210 ------- 0 0.0 2.0 60 60
- 0.725 0 1 cbr 210 ------- 0 0.0 2.0 60 60
r 0.72648 1 2 cbr 210 ------- 0 0.0 2.0 32 32
r 0.72793 0 1 cbr 210 ------- 0 0.0 2.0 55 55
+ 0.72793 1 2 cbr 210 ------- 0 0.0 2.0 55 55
+ 0.72875 0 1 cbr 210 ------- 0 0.0 2.0 61 61
- 0.72875 0 1 cbr 210 ------- 0 0.0 2.0 61 61
- 0.72888 1 2 cbr 210 ------- 0 0.0 2.0 37 37
r 0.73168 0 1 cbr 210 ------- 0 0.0 2.0 56 56
+ 0.73168 1 2 cbr 210 ------- 0 0.0 2.0 56 56
r 0.73208 1 2 cbr 210 ------- 0 0.0 2.0 33 33
+ 0.7325 0 1 cbr 210 ------- 0 0.0 2.0 62 62
- 0.7325 0 1 cbr 210 ------- 0 0.0 2.0 62 62
- 0.73448 1 2 cbr 210 ------- 0 0.0 2.0 38 38
r 0.73543 0 1 cbr 210 ------- 0 0.0 2.0 57 57
+ 0.73543 1 2 cbr 210 ------- 0 0.0 2.0 57 57
+ 0.73625 0 1 cbr 210 ------- 0 0.0 2.0 63 63
- 0.73625 0 1 cbr 210 ------- 0 0.0 2.0 63 63
r 0.73768 1 2 cbr 210 ------- 0 0.0 2.0 34 34
r 0.73918 0 1 cbr 210 ------- 0 0.0 2.0 58 58
+ 0.73918 1 2 cbr 210 ------- 0 0.0 2.0 58 58
+ 0.74 0 1 cbr 210 ------- 0 0.0 2.0 64 64
- 0.74 0 1 cbr 210 ------- 0 0.0 2.0 64 64
- 0.74008 1 2 cbr 210 ------- 0 0.0 2.0 39 39
r 0.74293 0 1 cbr 210 ------- 0 0.0 2.0 59 59
+ 0.74293 1 2 cbr 210 ------- 0 0.0 2.0 59 59
r 0.74328 1 2 cbr 210 ------- 0 0.0 2.0 35 35
+ 0.74375 0 1 cbr 210 ------- 0 0.0 2.0 65 65
- 0.74375 0 1 cbr 210 ------- 0 0.0 2.0 65 65
- 0.74568 1 2 cbr 210 ------- 0 0.0 2.0 40 40
r 0.74668 0 1 cbr 210 ------- 0 0.0 2.0 60 60
+ 0.74668 1 2 cbr 210 ------- 0 0.0 2.0 60 60
+ 0.7475 0 1 cbr 210 ------- 0 0.0 2.0 66 66
- 0.7475 0 1 cbr 210 ------- 0 0.0 2.0 66 66
r 0.74888 1 2 cbr 210 ------- 0 0.0 2.0 36 36
r 0.75043 0 1 cbr 210 ------- 0 0.0 2.0 61 61
+ 0.75043 1 2 cbr 210 ------- 0 0.0 2.0 61 61
+ 0.75125 0 1 cbr 210 ------- 0 0.0 2.0 67 67
- 0.75125 0 1 cbr 210 ------- 0 0.0 2.0 67 67
- 0.75128 1 2 cbr 210 ------- 0 0.0 2.0 41 41
r 0.75418 0 1 cbr 210 ------- 0 0.0 2.0 62 62
+ 0.75418 1 2 cbr 210 ------- 0 0.0 2.0 62 62
r 0.75448 1 2 cbr 210 ------- 0 0.0 2.0 37 37
+ 0.755 0 1 cbr 210 ------- 0 0.0 2.0 68 68
- 0.755 0 1 cbr 210 ------- 0 0.0 2.0 68 68
- 0.75688 1 2 cbr 210 ------- 0 0.0 2.0 42 42
r 0.75793 0 1 cbr 210 ------- 0 0.0 2.0 63 63
+ 0.75793 1 2 cbr 210 ------- 0 0.0 2.0 63 63
+ 0.75875 0 1 cbr 210 ------- 0 0.0 2.0 69 69
- 0.75875 0 1 cbr 210 ------- 0 0.0 2.0 69 69
r 0.76008 1 2 cbr 210 ------- 0 0.0 2.0 38 38
r 0.76168 0 1 cbr 210 ------- 0 0.0 2.0 64 64
+ 0.76168 1 2 cbr 210 ------- 0 0.0 2.0 64 64
- 0.76248 1 2 cbr 210 ------- 0 0.0 2.0 43 43
+ 0.7625 0 1 cbr 210 ------- 0 0.0 2.0 70 70
- 0.7625 0 1 cbr 210 ------- 0 0.0 2.0 70 70
r 0.76543 0 1 cbr 210 ------- 0 0.0 2.0 65 65
+ 0.76543 1 2 cbr 210 ------- 0 0.0 2.0 65 65
r 0.76568 1 2 cbr 210 ------- 0 0.0 2.0 39 39
+ 0.76625 0 1 cbr 210 ------- 0 0.0 2.0 71 71
- 0.76625 0 1 cbr 210 ------- 0 0.0 2.0 71 71
- 0.76808 1 2 cbr 210 ------- 0 0.0 2.0 44 44
r 0.76918 0 1 cbr 210 ------- 0 0.0 2.0 66 66
+ 0.76918 1 2 cbr 210 ------- 0 0.0 2.0 66 66
+ 0.77 0 1 cbr 210 ------- 0 0.0 2.0 72 72
- 0.77 0 1 cbr 210 ------- 0 0.0 2.0 72 72
r 0.77128 1 2 cbr 210 ------- 0 0.0 2.0 40 40
r 0.77293 0 1 cbr 210 ------- 0 0.0 2.0 67 67
+ 0.77293 1 2 cbr 210 ------- 0 0.0 2.0 67 67
- 0.77368 1 2 cbr 210 ------- 0 0.0 2.0 45 45
+ 0.77375 0 1 cbr 210 ------- 0 0.0 2.0 73 73
- 0.77375 0 1 cbr 210 ------- 0 0.0 2.0 73 73
r 0.77668 0 1 cbr 210 ------- 0 0.0 2.0 68 68
+ 0.77668 1 2 cbr 210 ------- 0 0.0 2.0 68 68
r 0.77688 1 2 cbr 210 ------- 0 0.0 2.0 41 41
+ 0.7775 0 1 cbr 210 ------- 0 0.0 2.0 74 74
- 0.7775 0 1 cbr 210 ------- 0 0.0 2.0 74 74
- 0.77928 1 2 cbr 210 ------- 0 0.0 2.0 46 46
r 0.78043 0 1 cbr 210 ------- 0 0.0 2.0 69 69
+ 0.78043 1 2 cbr 210 ------- 0 0.0 2.0 69 69
+ 0.78125 0 1 cbr 210 ------- 0 0.0 2.0 75 75
- 0.78125 0 1 cbr 210 ------- 0 0.0 2.0 75 75
r 0.78248 1 2 cbr 210 ------- 0 0.0 2.0 42 42
r 0.78418 0 1 cbr 210 ------- 0 0.0 2.0 70 70
+ 0.78418 1 2 cbr 210 ------- 0 0.0 2.0 70 70
- 0.78488 1 2 cbr 210 ------- 0 0.0 2.0 47 47
+ 0.785 0 1 cbr 210 ------- 0 0.0 2.0 76 76
- 0.785 0 1 cbr 210 ------- 0 0.0 2.0 76 76
r 0.78793 0 1 cbr 210 ------- 0 0.0 2.0 71 71
+ 0.78793 1 2 cbr 210 ------- 0 0.0 2.0 71 71
r 0.78808 1 2 cbr 210 ------- 0 0.0 2.0 43 43
+ 0.78875 0 1 cbr 210 ------- 0 0.0 2.0 77 77
- 0.78875 0 1 cbr 210 ------- 0 0.0 2.0 77 77
- 0.79048 1 2 cbr 210 ------- 0 0.0 2.0 48 48
r 0.79168 0 1 cbr 210 ------- 0 0.0 2.0 72 72
+ 0.79168 1 2 cbr 210 ------- 0 0.0 2.0 72 72
+ 0.7925 0 1 cbr 210 ------- 0 0.0 2.0 78 78
- 0.7925 0 1 cbr 210 ------- 0 0.0 2.0 78 78
r 0.79368 1 2 cbr 210 ------- 0 0.0 2.0 44 44
r 0.79543 0 1 cbr 210 ------- 0 0.0 2.0 73 73
+ 0.79543 1 2 cbr 210 ------- 0 0.0 2.0 73 73
- 0.79608 1 2 cbr 210 ------- 0 0.0 2.0 49 49
+ 0.79625 0 1 cbr 210 ------- 0 0.0 2.0 79 79
- 0.79625 0 1 cbr 210 ------- 0 0.0 2.0 79 79
r 0.79918 0 1 cbr 210 ------- 0 0.0 2.0 74 74
+ 0.79918 1 2 cbr 210 ------- 0 0.0 2.0 74 74
r 0.79928 1 2 cbr 210 ------- 0 0.0 2.0 45 45
+ 0.8 0 1 cbr 210 ------- 0 0.0 2.0 80 80
- 0.8 0 1 cbr 210 ------- 0 0.0 2.0 80 80
- 0.80168 1 2 cbr 210 ------- 0 0.0 2.0 50 50
r 0.80293 0 1 cbr 210 ------- 0 0.0 2.0 75 75
+ 0.80293 1 2 cbr 210 ------- 0 0.0 2.0 75 75
+ 0.80375 0 1 cbr 210 ------- 0 0.0 2.0 81 81
- 0.80375 0 1 cbr 210 ------- 0 0.0 2.0 81 81
r 0.80488 1 2 cbr 210 ------- 0 0.0 2.0 46 46
r 0.80668 0 1 cbr 210 ------- 0 0.0 2.0 76 76
+ 0.80668 1 2 cbr 210 ------- 0 0.0 2.0 76 76
- 0.80728 1 2 cbr 210 ------- 0 0.0 2.0 51 51
+ 0.8075 0 1 cbr 210 ------- 0 0.0 2.0 82 82
- 0.8075 0 1 cbr 210 ------- 0 0.0 2.0 82 82
r 0.81043 0 1 cbr 210 ------- 0 0.0 2.0 77 77
+ 0.81043 1 2 cbr 210 ------- 0 0.0 2.0 77 77
r 0.81048 1 2 cbr 210 ------- 0 0.0 2.0 47 47
+ 0.81125 0 1 cbr 210 ------- 0 0.0 2.0 83 83
- 0.81125 0 1 cbr 210 ------- 0 0.0 2.0 83 83
- 0.81288 1 2 cbr 210 ------- 0 0.0 2.0 52 52
r 0.81418 0 1 cbr 210 ------- 0 0.0 2.0 78 78
+ 0.81418 1 2 cbr 210 ------- 0 0.0 2.0 78 78
+ 0.815 0 1 cbr 210 ------- 0 0.0 2.0 84 84
- 0.815 0 1 cbr 210 ------- 0 0.0 2.0 84 84
r 0.81608 1 2 cbr 210 ------- 0 0.0 2.0 48 48
r 0.81793 0 1 cbr 210 ------- 0 0.0 2.0 79 79
+ 0.81793 1 2 cbr 210 ------- 0 0.0 2.0 79 79
- 0.81848 1 2 cbr 210 ------- 0 0.0 2.0 53 53
+ 0.81875 0 1 cbr 210 ------- 0 0.0 2.0 85 85
- 0.81875 0 1 cbr 210 ------- 0 0.0 2.0 85 85
r 0.82168 1 2 cbr 210 ------- 0 0.0 2.0 49 49
r 0.82168 0 1 cbr 210 ------- 0 0.0 2.0 80 80
+ 0.82168 1 2 cbr 210 ------- 0 0.0 2.0 80 80
+ 0.8225 0 1 cbr 210 ------- 0 0.0 2.0 86 86
- 0.8225 0 1 cbr 210 ------- 0 0.0 2.0 86 86
- 0.82408 1 2 cbr 210 ------- 0 0.0 2.0 54 54
r 0.82543 0 1 cbr 210 ------- 0 0.0 2.0 81 81
+ 0.82543 1 2 cbr 210 ------- 0 0.0 2.0 81 81
+ 0.82625 0 1 cbr 210 ------- 0 0.0 2.0 87 87
- 0.82625 0 1 cbr 210 ------- 0 0.0 2.0 87 87
r 0.82728 1 2 cbr 210 ------- 0 0.0 2.0 50 50
r 0.82918 0 1 cbr 210 ------- 0 0.0 2.0 82 82
+ 0.82918 1 2 cbr 210 ------- 0 0.0 2.0 82 82
- 0.82968 1 2 cbr 210 ------- 0 0.0 2.0 55 55
+ 0.83 0 1 cbr 210 ------- 0 0.0 2.0 88 88
- 0.83 0 1 cbr 210 ------- 0 0.0 2.0 88 88
r 0.83288 1 2 cbr 210 ------- 0 0.0 2.0 51 51
r 0.83293 0 1 cbr 210 ------- 0 0.0 2.0 83 83
+ 0.83293 1 2 cbr 210 ------- 0 0.0 2.0 83 83
+ 0.83375 0 1 cbr 210 ------- 0 0.0 2.0 89 89
- 0.83375 0 1 cbr 210 ------- 0 0.0 2.0 89 89
- 0.83528 1 2 cbr 210 ------- 0 0.0 2.0 56 56
r 0.83668 0 1 cbr 210 ------- 0 0.0 2.0 84 84
+ 0.83668 1 2 cbr 210 ------- 0 0.0 2.0 84 84
+ 0.8375 0 1 cbr 210 ------- 0 0.0 2.0 90 90
- 0.8375 0 1 cbr 210 ------- 0 0.0 2.0 90 90
r 0.83848 1 2 cbr 210 ------- 0 0.0 2.0 52 52
r 0.84043 0 1 cbr 210 ------- 0 0.0 2.0 85 85
+ 0.84043 1 2 cbr 210 ------- 0 0.0 2.0 85 85
- 0.84088 1 2 cbr 210 ------- 0 0.0 2.0 57 57
+ 0.84125 0 1 cbr 210 ------- 0 0.0 2.0 91 91
- 0.84125 0 1 cbr 210 ------- 0 0.0 2.0 91 91
r 0.84408 1 2 cbr 210 ------- 0 0.0 2.0 53 53
r 0.84418 0 1 cbr 210 ------- 0 0.0 2.0 86 86
+ 0.84418 1 2 cbr 210 ------- 0 0.0 2.0 86 86
+ 0.845 0 1 cbr 210 ------- 0 0.0 2.0 92 92
- 0.845 0 1 cbr 210 ------- 0 0.0 2.0 92 92
- 0.84648 1 2 cbr 210 ------- 0 0.0 2.0 58 58
r 0.84793 0 1 cbr 210 ------- 0 0.0 2.0 87 87
+ 0.84793 1 2 cbr 210 ------- 0 0.0 2.0 87 87
+ 0.84875 0 1 cbr 210 ------- 0 0.0 2.0 93 93
- 0.84875 0 1 cbr 210 ------- 0 0.0 2.0 93 93
r 0.84968 1 2 cbr 210 ------- 0 0.0 2.0 54 54
r 0.85168 0 1 cbr 210 ------- 0 0.0 2.0 88 88
+ 0.85168 1 2 cbr 210 ------- 0 0.0 2.0 88 88
- 0.85208 1 2 cbr 210 ------- 0 0.0 2.0 59 59
+ 0.8525 0 1 cbr 210 ------- 0 0.0 2.0 94 94
- 0.8525 0 1 cbr 210 ------- 0 0.0 2.0 94 94
r 0.85528 1 2 cbr 210 ------- 0 0.0 2.0 55 55
r 0.85543 0 1 cbr 210 ------- 0 0.0 2.0 89 89
+ 0.85543 1 2 cbr 210 ------- 0 0.0 2.0 89 89
+ 0.85625 0 1 cbr 210 ------- 0 0.0 2.0 95 95
- 0.85625 0 1 cbr 210 ------- 0 0.0 2.0 95 95
- 0.85768 1 2 cbr 210 ------- 0 0.0 2.0 60 60
r 0.85918 0 1 cbr 210 ------- 0 0.0 2.0 90 90
+ 0.85918 1 2 cbr 210 ------- 0 0.0 2.0 90 90
+ 0.86 0 1 cbr 210 ------- 0 0.0 2.0 96 96
- 0.86 0 1 cbr 210 ------- 0 0.0 2.0 96 96
r 0.86088 1 2 cbr 210 ------- 0 0.0 2.0 56 56
r 0.86293 0 1 cbr 210 ------- 0 0.0 2.0 91 91
+ 0.86293 1 2 cbr 210 ------- 0 0.0 2.0 91 91
- 0.86328 1 2 cbr 210 ------- 0 0.0 2.0 61 61
+ 0.86375 0 1 cbr 210 ------- 0 0.0 2.0 97 97
- 0.86375 0 1 cbr 210 ------- 0 0.0 2.0 97 97
r 0.86648 1 2 cbr 210 ------- 0 0.0 2.0 57 57
r 0.86668 0 1 cbr 210 ------- 0 0.0 2.0 92 92
+ 0.86668 1 2 cbr 210 ------- 0 0.0 2.0 92 92
+ 0.8675 0 1 cbr 210 ------- 0 0.0 2.0 98 98
- 0.8675 0 1 cbr 210 ------- 0 0.0 2.0 98 98
- 0.86888 1 2 cbr 210 ------- 0 0.0 2.0 62 62
r 0.87043 0 1 cbr 210 ------- 0 0.0 2.0 93 93
+ 0.87043 1 2 cbr 210 ------- 0 0.0 2.0 93 93
+ 0.87125 0 1 cbr 210 ------- 0 0.0 2.0 99 99
- 0.87125 0 1 cbr 210 ------- 0 0.0 2.0 99 99
r 0.87208 1 2 cbr 210 ------- 0 0.0 2.0 58 58
r 0.87418 0 1 cbr 210 ------- 0 0.0 2.0 94 94
+ 0.87418 1 2 cbr 210 ------- 0 0.0 2.0 94 94
- 0.87448 1 2 cbr 210 ------- 0 0.0 2.0 63 63
+ 0.875 0 1 cbr 210 ------- 0 0.0 2.0 100 100
- 0.875 0 1 cbr 210 ------- 0 0.0 2.0 100 100
r 0.87768 1 2 cbr 210 ------- 0 0.0 2.0 59 59
r 0.87793 0 1 cbr 210 ------- 0 0.0 2.0 95 95
+ 0.87793 1 2 cbr 210 ------- 0 0.0 2.0 95 95
+ 0.87875 0 1 cbr 210 ------- 0 0.0 2.0 101 101
- 0.87875 0 1 cbr 210 ------- 0 0.0 2.0 101 101
- 0.88008 1 2 cbr 210 ------- 0 0.0 2.0 64 64
r 0.88168 0 1 cbr 210 ------- 0 0.0 2.0 96 96
+ 0.88168 1 2 cbr 210 ------- 0 0.0 2.0 96 96
+ 0.8825 0 1 cbr 210 ------- 0 0.0 2.0 102 102
- 0.8825 0 1 cbr 210 ------- 0 0.0 2.0 102 102
r 0.88328 1 2 cbr 210 ------- 0 0.0 2.0 60 60
r 0.88543 0 1 cbr 210 ------- 0 0.0 2.0 97 97
+ 0.88543 1 2 cbr 210 ------- 0 0.0 2.0 97 97
- 0.88568 1 2 cbr 210 ------- 0 0.0 2.0 65 65
+ 0.88625 0 1 cbr 210 ------- 0 0.0 2.0 103 103
- 0.88625 0 1 cbr 210 ------- 0 0.0 2.0 103 103
r 0.88888 1 2 cbr 210 ------- 0 0.0 2.0 61 61
r 0.88918 0 1 cbr 210 ------- 0 0.0 2.0 98 98
+ 0.88918 1 2 cbr 210 ------- 0 0.0 2.0 98 98
+ 0.89 0 1 cbr 210 ------- 0 0.0 2.0 104 104
- 0.89 0 1 cbr 210 ------- 0 0.0 2.0 104 104
- 0.89128 1 2 cbr 210 ------- 0 0.0 2.0 66 66
r 0.89293 0 1 cbr 210 ------- 0 0.0 2.0 99 99
+ 0.89293 1 2 cbr 210 ------- 0 0.0 2.0 99 99
+ 0.89375 0 1 cbr 210 ------- 0 0.0 2.0 105 105
- 0.89375 0 1 cbr 210 ------- 0 0.0 2.0 105 105
r 0.89448 1 2 cbr 210 ------- 0 0.0 2.0 62 62
r 0.89668 0 1 cbr 210 ------- 0 0.0 2.0 100 100
+ 0.89668 1 2 cbr 210 ------- 0 0.0 2.0 100 100
- 0.89688 1 2 cbr 210 ------- 0 0.0 2.0 67 67
+ 0.8975 0 1 cbr 210 ------- 0 0.0 2.0 106 106
- 0.8975 0 1 cbr 210 ------- 0 0.0 2.0 106 106
r 0.90008 1 2 cbr 210 ------- 0 0.0 2.0 63 63
r 0.90043 0 1 cbr 210 ------- 0 0.0 2.0 101 101
+ 0.90043 1 2 cbr 210 ------- 0 0.0 2.0 101 101
+ 0.90125 0 1 cbr 210 ------- 0 0.0 2.0 107 107
- 0.90125 0 1 cbr 210 ------- 0 0.0 2.0 107 107
- 0.90248 1 2 cbr 210 ------- 0 0.0 2.0 68 68
r 0.90418 0 1 cbr 210 ------- 0 0.0 2.0 102 102
+ 0.90418 1 2 cbr 210 ------- 0 0.0 2.0 102 102
+ 0.905 0 1 cbr 210 ------- 0 0.0 2.0 108 108
- 0.905 0 1 cbr 210 ------- 0 0.0 2.0 108 108
r 0.90568 1 2 cbr 210 ------- 0 0.0 2.0 64 64
r 0.90793 0 1 cbr 210 ------- 0 0.0 2.0 103 103
+ 0.90793 1 2 cbr 210 ------- 0 0.0 2.0 103 103
- 0.90808 1 2 cbr 210 ------- 0 0.0 2.0 69 69
+ 0.90875 0 1 cbr 210 ------- 0 0.0 2.0 109 109
- 0.90875 0 1 cbr 210 ------- 0 0.0 2.0 109 109
r 0.91128 1 2 cbr 210 ------- 0 0.0 2.0 65 65
r 0.91168 0 1 cbr 210 ------- 0 0.0 2.0 104 104
+ 0.91168 1 2 cbr 210 ------- 0 0.0 2.0 104 104
+ 0.9125 0 1 cbr 210 ------- 0 0.0 2.0 110 110
- 0.9125 0 1 cbr 210 ------- 0 0.0 2.0 110 110
- 0.91368 1 2 cbr 210 ------- 0 0.0 2.0 70 70
r 0.91543 0 1 cbr 210 ------- 0 0.0 2.0 105 105
+ 0.91543 1 2 cbr 210 ------- 0 0.0 2.0 105 105
+ 0.91625 0 1 cbr 210 ------- 0 0.0 2.0 111 111
- 0.91625 0 1 cbr 210 ------- 0 0.0 2.0 111 111
r 0.91688 1 2 cbr 210 ------- 0 0.0 2.0 66 66
r 0.91918 0 1 cbr 210 ------- 0 0.0 2.0 106 106
+ 0.91918 1 2 cbr 210 ------- 0 0.0 2.0 106 106
- 0.91928 1 2 cbr 210 ------- 0 0.0 2.0 71 71
+ 0.92 0 1 cbr 210 ------- 0 0.0 2.0 112 112
- 0.92 0 1 cbr 210 ------- 0 0.0 2.0 112 112
r 0.92248 1 2 cbr 210 ------- 0 0.0 2.0 67 67
r 0.92293 0 1 cbr 210 ------- 0 0.0 2.0 107 107
+ 0.92293 1 2 cbr 210 ------- 0 0.0 2.0 107 107
+ 0.92375 0 1 cbr 210 ------- 0 0.0 2.0 113 113
- 0.92375 0 1 cbr 210 ------- 0 0.0 2.0 113 113
- 0.92488 1 2 cbr 210 ------- 0 0.0 2.0 72 72
r 0.92668 0 1 cbr 210 ------- 0 0.0 2.0 108 108
+ 0.92668 1 2 cbr 210 ------- 0 0.0 2.0 108 108
+ 0.9275 0 1 cbr 210 ------- 0 0.0 2.0 114 114
- 0.9275 0 1 cbr 210 ------- 0 0.0 2.0 114 114
r 0.92808 1 2 cbr 210 ------- 0 0.0 2.0 68 68
r 0.93043 0 1 cbr 210 ------- 0 0.0 2.0 109 109
+ 0.93043 1 2 cbr 210 ------- 0 0.0 2.0 109 109
- 0.93048 1 2 cbr 210 ------- 0 0.0 2.0 73 73
+ 0.93125 0 1 cbr 210 ------- 0 0.0 2.0 115 115
- 0.93125 0 1 cbr 210 ------- 0 0.0 2.0 115 115
r 0.93368 1 2 cbr 210 ------- 0 0.0 2.0 69 69
r 0.93418 0 1 cbr 210 ------- 0 0.0 2.0 110 110
+ 0.93418 1 2 cbr 210 ------- 0 0.0 2.0 110 110
+ 0.935 0 1 cbr 210 ------- 0 0.0 2.0 116 116
- 0.935 0 1 cbr 210 ------- 0 0.0 2.0 116 116
- 0.93608 1 2 cbr 210 ------- 0 0.0 2.0 74 74
r 0.93793 0 1 cbr 210 ------- 0 0.0 2.0 111 111
+ 0.93793 1 2 cbr 210 ------- 0 0.0 2.0 111 111
+ 0.93875 0 1 cbr 210 ------- 0 0.0 2.0 117 117
- 0.93875 0 1 cbr 210 ------- 0 0.0 2.0 117 117
r 0.93928 1 2 cbr 210 ------- 0 0.0 2.0 70 70
r 0.94168 0 1 cbr 210 ------- 0 0.0 2.0 112 112
+ 0.94168 1 2 cbr 210 ------- 0 0.0 2.0 112 112
- 0.94168 1 2 cbr 210 ------- 0 0.0 2.0 75 75
+ 0.9425 0 1 cbr 210 ------- 0 0.0 2.0 118 118
- 0.9425 0 1 cbr 210 ------- 0 0.0 2.0 118 118
r 0.94488 1 2 cbr 210 ------- 0 0.0 2.0 71 71
r 0.94543 0 1 cbr 210 ------- 0 0.0 2.0 113 113
+ 0.94543 1 2 cbr 210 ------- 0 0.0 2.0 113 113
+ 0.94625 0 1 cbr 210 ------- 0 0.0 2.0 119 119
- 0.94625 0 1 cbr 210 ------- 0 0.0 2.0 119 119
- 0.94728 1 2 cbr 210 ------- 0 0.0 2.0 76 76
r 0.94918 0 1 cbr 210 ------- 0 0.0 2.0 114 114
+ 0.94918 1 2 cbr 210 ------- 0 0.0 2.0 114 114
+ 0.95 0 1 cbr 210 ------- 0 0.0 2.0 120 120
- 0.95 0 1 cbr 210 ------- 0 0.0 2.0 120 120
r 0.95048 1 2 cbr 210 ------- 0 0.0 2.0 72 72
- 0.95288 1 2 cbr 210 ------- 0 0.0 2.0 77 77
r 0.95293 0 1 cbr 210 ------- 0 0.0 2.0 115 115
+ 0.95293 1 2 cbr 210 ------- 0 0.0 2.0 115 115
+ 0.95375 0 1 cbr 210 ------- 0 0.0 2.0 121 121
- 0.95375 0 1 cbr 210 ------- 0 0.0 2.0 121 121
r 0.95608 1 2 cbr 210 ------- 0 0.0 2.0 73 73
r 0.95668 0 1 cbr 210 ------- 0 0.0 2.0 116 116
+ 0.95668 1 2 cbr 210 ------- 0 0.0 2.0 116 116
+ 0.9575 0 1 cbr 210 ------- 0 0.0 2.0 122 122
- 0.9575 0 1 cbr 210 ------- 0 0.0 2.0 122 122
- 0.95848 1 2 cbr 210 ------- 0 0.0 2.0 78 78
r 0.96043 0 1 cbr 210 ------- 0 0.0 2.0 117 117
+ 0.96043 1 2 cbr 210 ------- 0 0.0 2.0 117 117
+ 0.96125 0 1 cbr 210 ------- 0 0.0 2.0 123 123
- 0.96125 0 1 cbr 210 ------- 0 0.0 2.0 123 123
r 0.96168 1 2 cbr 210 ------- 0 0.0 2.0 74 74
- 0.96408 1 2 cbr 210 ------- 0 0.0 2.0 79 79
r 0.96418 0 1 cbr 210 ------- 0 0.0 2.0 118 118
+ 0.96418 1 2 cbr 210 ------- 0 0.0 2.0 118 118
+ 0.965 0 1 cbr 210 ------- 0 0.0 2.0 124 124
- 0.965 0 1 cbr 210 ------- 0 0.0 2.0 124 124
r 0.96728 1 2 cbr 210 ------- 0 0.0 2.0 75 75
r 0.96793 0 1 cbr 210 ------- 0 0.0 2.0 119 119
+ 0.96793 1 2 cbr 210 ------- 0 0.0 2.0 119 119
+ 0.96875 0 1 cbr 210 ------- 0 0.0 2.0 125 125
- 0.96875 0 1 cbr 210 ------- 0 0.0 2.0 125 125
- 0.96968 1 2 cbr 210 ------- 0 0.0 2.0 80 80
r 0.97168 0 1 cbr 210 ------- 0 0.0 2.0 120 120
+ 0.97168 1 2 cbr 210 ------- 0 0.0 2.0 120 120
+ 0.9725 0 1 cbr 210 ------- 0 0.0 2.0 126 126
- 0.9725 0 1 cbr 210 ------- 0 0.0 2.0 126 126
r 0.97288 1 2 cbr 210 ------- 0 0.0 2.0 76 76
- 0.97528 1 2 cbr 210 ------- 0 0.0 2.0 81 81